ITEM: TIMESTEP
620000
ITEM: NUMBER OF ATOMS
254
ITEM: BOX BOUNDS pp pp pp
-157.6584 176.8576
-171.4395 163.0765
-162.5811 171.9349
ITEM: ATOMS id type x y z 
3991 1 20.95289 14.1404 29.9386
6150 1 14.96859 49.338 12.442
4685 1 37.53349 6.37846 14.7799
4653 1 29.88749 19.5446 18.7227
2042 1 26.95439 27.5242 11.7094
6376 1 29.74089 46.1676 12.0969
1627 1 2.99923 47.3308 20.5884
1998 1 1.22849 31.2318 12.4799
2863 1 21.42839 47.3033 13.0465
2867 1 39.45819 47.4869 13.8088
1198 1 1.09123 22.9282 15.9398
5455 1 19.84229 30.5075 15.9342
3345 1 14.09709 3.22928 30.3474
1176 1 4.77685 15.319 11.9463
1179 1 1.84849 27.0682 12.3303
1571 1 23.62439 13.1439 16.5387
1000 1 12.56549 32.8985 12.0122
6572 1 28.25819 9.44953 28.0878
4381 1 24.70749 27.7288 14.1911
2745 1 -1.05064 4.38503 28.6528
372 1 9.13969 4.36467 11.9778
4349 1 10.64499 4.32548 25.7118
4340 1 6.0065 2.20456 27.7029
3744 1 7.57313 45.818 15.555
3741 1 13.14999 52.833 12.0234
2051 1 16.38769 32.4317 11.7362
5738 1 5.54771 40.0691 11.9271
2699 1 40.25489 45.521 12.514
6218 1 1.20533 1.5547 11.9474
3232 1 3.63255 4.78667 11.8907
3238 1 19.84469 43.445 27.4886
2870 1 9.88899 46.1824 19.0183
5446 1 -0.983396 31.5286 13.6198
1545 1 40.26029 9.45048 28.1289
410 1 14.88179 18.0121 21.8078
1384 1 29.18809 40.1176 21.4177
3820 1 10.53299 17.4101 11.7502
362 1 10.90099 1.84983 25.368
4758 1 24.59819 23.9264 25.0033
4752 1 9.04609 28.6385 11.6972
4813 1 32.47829 36.668 12.2619
169 1 31.41419 22.7738 11.7468
6198 1 5.82234 5.92857 11.8011
2738 1 9.5859 -0.93834 12.1805
2739 1 1.55272 43.1231 12.9661
2168 1 28.91849 44.1507 28.8551
6789 1 32.71079 6.62344 11.6771
2849 1 17.32639 40.7671 19.4145
3033 1 6.22268 -1.46712 12.4321
5608 1 31.56959 51.9303 20.1672
6510 1 37.44329 19.0304 15.5339
423 1 6.443 20.1443 12.9852
5797 1 36.59949 35.0888 12.3354
6900 1 19.82399 -1.14526 22.446
2505 1 28.38749 36.9623 18.4974
1800 1 21.61619 21.7667 20.855
6239 1 23.60669 45.797 17.0043
6238 1 26.71009 51.2965 19.8092
1946 1 16.39669 36.7826 16.4194
812 1 2.93184 21.7362 13.1663
2097 1 0.515119 37.2324 11.7588
4576 1 27.47479 13.8742 11.8242
1230 1 25.94569 14.3914 16.7821
4190 1 38.48419 -0.720947 24.7598
5679 1 17.04839 25.9073 16.782
2864 1 11.45659 21.3524 12.3615
6437 1 26.47359 39.8781 21.5694
6439 1 27.41009 45.6461 12.2003
4771 1 25.93869 34.8442 12.1057
2222 1 -0.376462 37.7204 18.7582
147 1 11.80669 9.47305 12.5547
145 1 17.94679 36.4075 11.9879
2080 1 3.83433 19.6379 18.2155
5714 1 17.72959 40.4519 12.0018
2716 1 1.96723 27.9645 18.72
3792 1 2.7492 17.515 12.5316
1958 1 34.06269 15.3542 13.7232
618 1 17.48279 7.32018 22.5026
5494 1 26.61749 47.3355 17.2055
1135 1 16.82199 15.1125 12.2799
510 1 26.39769 23.8122 12.6309
1228 1 24.00649 36.8111 12.1308
5666 1 -1.10662 9.54699 13.3117
3879 1 34.50049 21.7933 11.9763
3876 1 36.88369 15.1206 14.2051
11 1 10.24879 9.13188 29.775
2959 1 0.927338 30.2239 18.944
3901 1 8.95379 50.5723 11.9991
6022 1 2.77951 34.2372 30.0986
4767 1 37.28029 3.1691 27.6917
4169 1 19.38539 45.7987 13.19
4575 1 40.38709 27.0132 12.3336
2951 1 26.15499 2.87337 26.8735
2415 1 10.40499 12.6564 22.1659
6251 1 4.75359 10.2017 11.7136
5393 1 22.96079 44.0513 12.1045
5749 1 39.15649 50.9549 11.7373
1928 1 40.54259 26.0917 17.7211
3477 1 38.26809 37.4284 16.4177
836 1 16.31769 9.28036 12.1118
3479 1 35.92929 38.958 11.7378
5481 1 16.66649 27.8978 12.6712
468 1 12.15819 47.0837 28.4621
3000 1 24.95529 45.757 12.2938
504 1 28.52479 19.9629 25.6202
501 1 40.06179 9.37706 20.537
1212 1 1.96017 25.4487 18.658
3866 1 21.26929 19.1943 12.0887
958 1 14.82019 20.1449 11.7873
3918 1 25.19989 41.2114 27.0151
213 1 1.41922 50.4414 12.5921
219 1 14.49159 6.96069 28.2801
3480 1 30.30349 -1.8596 11.7104
3485 1 38.20669 38.6162 12.6085
3644 1 19.73289 3.7552 11.7411
6394 1 21.93889 38.2112 12.7874
2773 1 0.899407 19.6322 17.7338
6264 1 22.26769 2.11064 12.112
6262 1 14.14419 51.014 29.3215
4417 1 33.27749 37.6691 17.6853
1855 1 32.74339 32.9272 12.2321
2172 1 23.50289 25.8576 20.0918
4969 1 -0.37433 4.50864 12.7204
6069 1 6.81922 49.4452 12.3163
1427 1 15.54079 23.2156 12.0778
2956 1 10.20689 39.0894 12.7349
5643 1 17.59419 26.8599 24.592
3104 1 5.28565 26.6566 24.9891
3103 1 38.81319 4.25389 22.0897
1114 1 17.76999 10.5764 29.5852
4582 1 23.67669 10.0883 12.4387
6526 1 33.73009 47.0064 11.7278
5914 1 39.89549 13.3604 12.3296
3679 1 14.16529 46.9325 21.5196
2763 1 1.83019 19.9837 24.8876
2765 1 23.79229 43.6045 22.758
3293 1 5.51987 0.907598 12.0073
854 1 22.80619 52.2975 12.1887
1186 1 28.17389 49.5665 12.06
5227 1 17.49619 36.373 30.0281
1692 1 26.78669 18.9544 11.8887
612 1 18.21979 52.0056 22.5104
492 1 30.67489 6.71709 12.7487
5583 1 39.51449 40.5903 12.1181
23 1 8.33715 10.2786 12.5106
6475 1 25.88429 3.20767 11.9567
6710 1 11.39209 51.1152 11.847
5696 1 16.14339 38.8696 26.223
6488 1 28.93169 4.82079 17.1235
3665 1 19.53499 11.7495 11.9098
6855 1 35.03499 2.55693 12.7202
2372 1 13.07119 8.772 21.251
3593 1 24.02599 6.96779 21.5199
6590 1 29.25799 7.9314 21.2569
3594 1 39.55629 43.273 12.3964
1873 1 20.84079 15.7277 13.8645
4940 1 12.36189 16.4467 26.2715
2118 1 30.19939 28.4337 13.5041
6598 1 28.79019 52.7219 20.2861
6040 1 37.88759 44.5008 30.2882
6044 1 21.64529 33.675 11.7549
5216 1 33.15379 15.3971 31.1337
5215 1 35.66339 7.99247 23.2302
1882 1 4.73605 35.7044 13.651
1506 1 22.56949 24.2925 12.9507
1266 1 39.12069 25.4983 22.4261
3948 1 28.59609 1.93333 29.4393
5972 1 19.91399 30.4286 11.7072
4446 1 28.98619 11.5695 12.2022
2109 1 2.38354 35.6995 12.6072
32 1 0.484789 12.0107 13.0984
2102 1 36.21449 27.3651 11.9216
2639 1 6.57751 24.769 12.5631
9 1 9.35074 42.1922 12.4738
768 1 16.46899 4.96207 22.2452
3042 1 32.15729 44.744 21.8406
3804 1 33.67169 11.2402 12.2386
1095 1 4.96963 23.0599 13.7388
4336 1 24.63749 30.6995 12.6548
1414 1 9.42093 40.6492 25.2044
6453 1 31.65109 3.07517 14.84
6457 1 29.80699 43.3477 16.1108
5765 1 24.22259 14.9442 30.9872
5564 1 16.10929 34.0633 16.2866
1253 1 1.13667 9.83501 16.1835
2970 1 3.50886 46.9976 12.2712
3600 1 30.92219 18.0907 12.9
3608 1 40.00829 2.87936 12.4014
6118 1 22.24539 44.1238 27.5988
6112 1 37.08879 20.3426 12.3946
4691 1 17.48879 29.237 24.6055
2642 1 13.04379 30.475 12.118
4855 1 26.89599 -0.140668 11.7174
718 1 5.79012 -0.326521 19.2555
1790 1 8.28256 25.1349 19.2016
1668 1 -0.881384 6.97201 13.8065
591 1 9.78997 44.4839 15.9038
4327 1 31.89839 28.992 19.1334
2820 1 9.34859 34.7359 17.3833
5414 1 9.24203 39.2452 30.9673
1403 1 12.75929 43.2497 12.4331
448 1 0.274742 7.55591 31.0192
443 1 35.00149 44.2157 30.72
1330 1 18.49469 18.9056 11.8167
5576 1 19.53019 50.7765 14.062
1539 1 23.10509 15.3967 12.9977
3892 1 15.98969 0.414144 19.9132
6615 1 6.30642 27.084 11.8905
4613 1 28.12309 31.3742 11.7541
2125 1 13.32629 38.7711 12.8755
943 1 17.52669 39.0555 30.7343
3415 1 29.96389 10.0014 16.5871
4866 1 27.28929 18.2459 20.9154
3567 1 16.75719 45.5526 11.982
4487 1 31.68729 15.9095 12.4003
3152 1 7.16019 14.3344 11.8111
1981 1 8.54239 25.2596 23.7253
2938 1 37.34149 48.581 12.621
2126 1 10.94169 42.516 25.3296
1081 1 24.40779 48.1638 17.0903
3624 1 2.51733 13.6243 12.2679
3710 1 23.34539 47.8319 30.5139
2240 1 40.11049 29.6668 12.287
2461 1 20.53289 42.5707 12.0775
5149 1 30.62809 13.874 31.5314
6318 1 14.40789 35.6303 12.8038
6319 1 26.51609 31.339 26.0913
2934 1 4.2545 49.7478 27.6048
2933 1 26.46719 3.74695 18.8117
572 1 12.67579 10.1024 29.547
3162 1 24.73809 52.6285 31.2009
2804 1 20.20429 1.27965 22.52
3161 1 9.01198 14.36 15.394
732 1 6.22966 6.95611 23.9069
6639 1 10.47119 39.1673 16.8311
6637 1 17.37499 42.7741 27.6048
6636 1 24.58739 38.5949 27.1018
2328 1 27.91489 39.6811 11.7458
289 1 11.52289 46.8001 11.9438
3618 1 37.75699 2.01916 13.2101
262 1 1.00563 21.0251 11.6791
6015 1 4.06724 41.8187 20.2927
5158 1 24.57369 40.9701 12.74
988 1 32.50509 26.7727 13.694
113 1 17.23609 45.864 18.3442
6893 1 33.08439 40.1651 31.5387
3508 1 26.18699 7.71461 14.0867
5734 1 23.61169 34.9764 29.8827
5427 1 35.25649 43.598 12.1208
5420 1 40.43099 31.4438 26.0967
6461 1 24.55549 33.2084 17.2483
6549 1 28.71429 6.76799 14.0756
1366 1 13.02069 3.53861 14.9742
4398 1 11.99629 9.86692 16.8724