ITEM: TIMESTEP
620000
ITEM: NUMBER OF ATOMS
189
ITEM: BOX BOUNDS pp pp pp
0.0 39.3072
0.0 51.0615
0.0 43.2416
ITEM: ATOMS id type x y z 
1615 1 17.2334 45.0717 6.40242
962 1 14.7825 6.69895 6.34923
1048 1 22.2598 10.957 6.25566
1438 1 36.9501 31.5491 6.30567
1193 1 19.7149 18.8916 6.31782
1192 1 22.2165 19.4574 6.31732
1175 1 9.76981 18.7772 6.27871
1174 1 12.2404 19.5424 6.35196
1287 1 31.9417 22.9972 6.36752
1286 1 34.3856 23.7757 6.34919
877 1 7.41776 2.42661 6.2923
1574 1 34.4777 40.7743 6.26471
870 1 -0.0315 1.90607 6.269
1377 1 2.53655 31.6093 6.28945
1376 1 4.99506 32.2804 6.32552
895 1 17.3247 2.49726 6.24798
963 1 12.3191 5.97259 6.31502
1142 1 34.5255 15.1954 6.27619
1143 1 32.0274 14.6531 6.39923
1547 1 19.6621 40.6893 6.30089
1548 1 17.238 40.1189 6.34612
1385 1 9.87478 32.2143 6.40185
1386 1 7.4461 31.5526 6.39346
1507 1 36.8919 36.495 6.2423
1107 1 12.3395 14.5227 6.31429
1445 1 2.55218 36.5438 6.25117
1606 1 12.3053 44.959 6.43292
1158 1 -0.0323 18.8355 6.33443
1157 1 2.42637 19.4237 6.36601
1150 1 36.9131 14.69 6.39263
1557 1 22.0949 39.9828 6.37111
1556 1 24.5562 40.6473 6.31631
1233 1 2.50416 22.961 6.3964
1395 1 12.3194 31.5867 6.31664
1394 1 14.7205 32.3191 6.39386
1521 1 2.55385 40.1236 6.34643
1498 1 31.9741 36.5264 6.22927
1700 1 24.5848 49.2192 6.32398
1701 1 22.2211 48.4823 6.30515
1624 1 22.166 44.9913 6.33981
1124 1 24.6179 15.2266 6.35261
1125 1 22.1657 14.6439 6.38128
1014 1 0.0162321 10.3109 6.34062
1013 1 2.50242 10.8774 6.33847
1430 1 34.4279 32.1042 6.28627
1057 1 27.224 10.9034 6.23434
1431 1 31.9669 31.5785 6.27129
938 1 0.0687016 6.76629 6.2541
932 1 34.4258 1.77958 6.2311
931 1 36.8289 2.50649 6.45323
1481 1 19.7045 35.8744 6.36662
1480 1 22.1071 36.4485 6.37627
1489 1 27.0135 36.5148 6.30566
1133 1 29.5782 15.2353 6.27603
1134 1 27.0385 14.4961 6.40755
1006 1 36.9375 6.0884 6.34463
1226 1 0.0564997 23.6299 6.30577
1220 1 34.4161 18.8367 6.3522
1565 1 29.5177 40.7604 6.30234
998 1 34.4786 6.65584 6.26135
922 1 31.9928 2.4634 6.28935
923 1 29.539 1.9046 6.33896
1726 1 36.9012 48.5274 6.28271
1589 1 2.65891 45.0575 6.225
1582 1 36.9419 40.0488 6.28664
1039 1 17.3426 10.9119 6.28299
1030 1 12.3775 10.898 6.43115
1031 1 9.88823 10.3534 6.32736
1210 1 32.0086 19.5317 6.31472
1211 1 29.548 18.7873 6.34967
1219 1 36.8825 19.5601 6.335
1454 1 4.96831 35.8956 6.37614
914 1 24.6428 1.85075 6.37168
913 1 27.0714 2.36957 6.30538
1421 1 29.5196 32.1238 6.23643
1597 1 7.48795 45.0243 6.25504
1598 1 5.07117 44.3535 6.32964
1022 1 4.97986 10.2983 6.35231
1201 1 27.1659 19.4879 6.24326
1202 1 24.6598 18.8656 6.42768
1115 1 19.7548 15.1744 6.33015
1116 1 17.2999 14.5176 6.35093
990 1 27.1867 6.11093 6.46731
1106 1 14.7653 15.2048 6.37686
999 1 32.1164 6.11251 6.42574
904 1 22.1838 2.38134 6.3224
905 1 19.7433 1.64938 6.29272
1184 1 14.712 18.8394 6.28486
1058 1 24.6817 10.3615 6.35655
1692 1 17.3471 48.4455 6.36483
1691 1 19.727 49.2421 6.29595
1633 1 27.1417 44.9795 6.24182
1490 1 24.5484 35.8358 6.3353
1472 1 14.8216 35.9057 6.35041
1471 1 17.264 36.5452 6.30651
1301 1 2.55248 27.8689 6.22197
1302 1 0.124932 27.3579 6.36245
1309 1 7.35983 28.1147 6.39381
1049 1 19.7317 10.2527 6.37704
972 1 17.2334 6.0729 6.30405
971 1 19.7734 6.69426 6.3549
869 1 2.45912 2.37774 6.32612
887 1 9.85943 1.79666 6.30046
886 1 12.2997 2.374 6.38382
1683 1 12.4102 48.5949 6.39105
1682 1 14.8355 49.2309 6.32563
1269 1 22.1649 23.0235 6.36301
1260 1 17.2199 23.0897 6.24504
1242 1 7.44613 23.1745 6.35193
1463 1 9.90384 35.953 6.32203
1462 1 12.3412 36.4977 6.36475
1310 1 4.96726 27.2542 6.40582
1319 1 9.77789 27.4172 6.24099
1318 1 12.2251 27.9495 6.46346
1232 1 4.90783 23.6439 6.36778
1607 1 9.87428 44.3091 6.36092
878 1 4.92602 1.76088 6.3176
896 1 14.7934 1.8587 6.36881
1616 1 14.764 44.3372 6.31398
1538 1 14.7915 40.6103 6.38143
1076 1 34.4035 10.2641 6.39624
1075 1 36.8978 10.9678 6.26797
1674 1 7.44186 48.5928 6.38046
1673 1 9.93311 49.0685 6.3739
1097 1 9.88235 15.1387 6.40427
1098 1 7.41474 14.5739 6.41542
1718 1 34.4999 49.3125 6.22915
1412 1 24.5852 32.2319 6.33376
1413 1 22.1072 31.5756 6.28785
1327 1 17.2462 27.8953 6.333
1328 1 14.6976 27.3851 6.29833
1520 1 5.02879 40.6752 6.27279
1250 1 14.8071 23.7765 6.33564
1251 1 12.3246 23.1238 6.32135
1529 1 9.92872 40.8614 6.24782
1259 1 19.6844 23.751 6.38581
1625 1 19.684 44.3773 6.35877
1040 1 14.8626 10.3864 6.34693
953 1 9.89265 6.62203 6.29337
954 1 7.3889 6.09642 6.33844
1268 1 24.58 23.7098 6.39541
1067 1 29.5935 10.2343 6.47392
1066 1 32.0074 11.0221 6.22689
1665 1 2.50284 48.5924 6.35011
1664 1 4.95157 49.132 6.33935
1082 1 0.101268 15.2045 6.20189
1089 1 2.51842 14.6806 6.45258
1088 1 5.00379 15.1773 6.2796
1403 1 19.619 32.1496 6.3652
1404 1 17.155 31.6394 6.3648
1337 1 19.7242 27.347 6.37569
1336 1 22.1856 27.9473 6.36272
1241 1 9.88335 23.7812 6.25672
1530 1 7.49032 40.179 6.36229
1539 1 12.3959 40.0945 6.32662
1634 1 24.6697 44.3679 6.2475
1499 1 29.4839 35.8839 6.27901
944 1 4.9319 6.6621 6.39393
945 1 2.47366 6.00678 6.35389
1658 1 0.0677479 49.1313 6.34232
1652 1 34.4996 44.4102 6.33788
1651 1 36.9465 45.0033 6.31475
1345 1 27.1656 27.7738 6.22217
1346 1 24.6868 27.3276 6.46697
1453 1 7.46128 36.505 6.25996
1508 1 34.4348 35.8192 6.2752
1590 1 0.134198 44.3036 6.34279
1278 1 27.0729 23.0508 6.38688
1183 1 17.24 19.4595 6.41697
1643 1 29.5461 44.2858 6.24095
1642 1 31.9778 45.0275 6.28619
1719 1 32.0179 48.5564 6.27352
1422 1 27.0179 31.5351 6.28574
1355 1 29.6664 27.2651 6.39853
1354 1 32.076 27.895 6.18939
1514 1 0.104495 40.8056 6.3649
1277 1 29.5283 23.6759 6.34979
1021 1 7.3798 10.8986 6.39152
1446 1 0.106216 35.9117 6.36158
1566 1 27.0335 40.1322 6.26112
989 1 29.6653 6.62446 6.29354
980 1 24.6702 6.59928 6.38718
981 1 22.1831 6.07888 6.40222
1165 1 7.33654 19.5058 6.34987
1166 1 4.85283 18.8484 6.22577
1294 1 36.8488 23.0208 6.23784
1710 1 27.0805 48.6778 6.34619
1364 1 34.5141 27.156 6.37239
1363 1 36.9163 27.8574 6.29356