ITEM: TIMESTEP
0
ITEM: NUMBER OF ATOMS
21804
ITEM: BOX BOUNDS pp pp pp
1.6725749223342723e+02 2.3274250776656953e+02
1.6725749223342723e+02 2.3274250776656953e+02
1.6725749223342723e+02 2.3274250776656953e+02
ITEM: ATOMS id type x y z
1 12 177.080894054 171.637758003 206.909630801
2 1 178.912769509 168.680458431 208.277376363
3 1 180.238809973 168.927001811 208.088812792
4 1 180.485359672 170.23901587 207.547635226
5 1 179.513085387 171.095288711 207.143313449
6 1 178.060231354 170.841553309 207.345999881
7 1 177.885126478 169.56724362 207.968061241
8 8 178.596415764 232.663688917 209.075907088
9 1 179.138411063 167.626006761 211.628352538
10 1 178.846701123 167.855678689 212.978351877
11 12 179.756062048 167.8294632 214.086224699
12 1 177.507775677 168.361491096 213.270652783
13 1 176.493164139 168.370628997 212.268230629
14 1 176.837940304 167.991997258 211.005052406
15 1 178.161898027 167.604334322 210.712861369
16 4 179.925541932 231.758470758 209.077128091
17 4 177.341743677 231.924168719 208.474364865
18 7 180.986720352 168.279204239 208.431253349
19 7 181.445800817 170.582390763 207.509390585
20 7 176.937676744 169.147478022 208.145542433
21 7 180.104785508 167.455297616 211.327705479
22 7 175.571696722 168.71519698 212.4261052
23 7 176.268462447 168.197095407 210.189337657
24 7 179.805768509 171.954802081 206.71905629
25 7 177.251774016 168.644452409 214.297064632
26 0 0.0 0.0 0.0
27 0 0.0 0.0 0.0
28 0 0.0 0.0 0.0
29 0 0.0 0.0 0.0
30 12 214.478031241 183.546622589 229.421725299
31 1 213.583245206 185.188368229 226.256730581
32 1 214.481131371 184.539606051 225.424194849
33 1 215.374462191 183.56172292 225.803331539
34 1 215.230248979 183.221309199 227.142668135
35 1 214.364111871 183.771122913 228.029512676
36 1 213.431502047 184.720873506 227.580135212
37 8 212.37326319 186.346313757 225.751820031
38 1 213.947577168 188.460627708 225.879187548
39 1 214.470125958 189.653455805 226.284378594
40 12 215.676894868 190.09159435 225.887997573
41 1 213.67611603 190.278033219 227.342959166
42 1 212.561518598 189.649185351 227.902663116
43 1 212.088094431 188.398050888 227.448801863
44 1 212.874516636 187.840069887 226.49266645
45 4 210.857563146 186.048283184 226.071986242
46 4 212.385026522 186.777146638 224.223179156
47 7 214.52052036 184.801468045 224.408847604
48 7 216.196848679 183.246016557 225.287167144
49 7 212.629300354 185.023576641 228.149426068
50 7 214.284179438 188.016669639 225.05323179
51 7 211.984008192 190.081771246 228.549266742
52 7 211.237749844 188.03016127 227.768577585
53 7 215.799912513 182.480242443 227.50580815
54 7 213.901265386 191.224147307 227.629923314
55 0 0.0 0.0 0.0
56 0 0.0 0.0 0.0
57 0 0.0 0.0 0.0
58 0 0.0 0.0 0.0
59 9 196.071659402 185.731210204 220.793262307
60 1 194.898299115 188.574391188 222.735081191
61 1 193.560241434 188.27429061 222.976142046
62 1 193.074016075 187.070692025 222.540892728
63 1 193.850293658 186.228597682 221.796663101
64 1 195.207941903 186.548758664 221.538865734
65 1 195.758897218 187.742697501 222.00225274
66 8 195.5131453 190.056990143 223.443530441
67 1 195.326910206 189.459168181 226.101399683
68 1 195.850796553 189.231775004 227.419311578
69 12 194.912111782 189.206029057 228.480729665
70 1 197.245122367 189.168766157 227.561078865
71 1 198.077776405 189.227498887 226.405074739
72 1 197.508153453 189.505362578 225.144764672
73 1 196.203172491 189.682503667 225.016693185
74 4 194.299489318 191.045359175 223.817253363
75 4 196.725793353 190.732184702 222.670557058
76 7 192.980854833 188.959494733 223.485986593
77 7 192.114848417 186.83542788 222.792353158
78 7 196.794868454 187.955565384 221.859995391
79 7 194.274242885 189.569641015 225.813457427
80 7 199.044274204 189.092689042 226.522840105
81 7 198.197250746 189.527354997 224.334747076
82 7 193.48841778 185.276009787 221.406033327
83 7 197.731795201 189.015407575 228.439092037
84 0 0.0 0.0 0.0
85 7 196.952877589 185.688958221 221.07662306
86 0 0.0 0.0 0.0
87 0 0.0 0.0 0.0
88 12 210.427373872 202.166804925 191.956454177
89 1 210.511307089 202.865230515 195.660745139
90 1 211.723982432 202.300660558 196.061134978
91 1 212.549055305 201.855095849 195.026375451
92 1 212.047201613 201.712250451 193.704547881
93 1 210.795273473 202.150858648 193.292867107
94 1 209.96965332 202.63156428 194.320535728
95 8 209.528028663 203.564817738 196.939164198
96 1 210.201268031 206.072803246 196.670752194
97 1 210.646508955 207.3287004 197.049111795
98 12 210.483668485 208.50720816 196.246877289
99 1 211.330804278 207.394723485 198.228353094
100 1 211.577362443 206.218948581 199.003191139
101 1 211.239770509 204.94903875 198.53417299
102 1 210.399362578 204.935010965 197.443245526
103 4 209.566838234 202.415151887 198.03217879
104 4 207.976725103 204.009175325 196.575580954
105 7 212.096827713 202.222085955 196.993866353
106 7 213.516112213 201.699889697 195.205650271
107 7 209.018736307 202.966239707 194.041644779
108 7 209.801243924 205.916524162 195.71888548
109 7 212.134072476 206.328054736 199.866029283
110 7 211.552854052 204.193723376 199.044865484
111 7 212.785069234 201.335379164 193.064438014
112 7 211.581414814 208.307292158 198.722670083
113 0 0.0 0.0 0.0
114 0 0.0 0.0 0.0
115 0 0.0 0.0 0.0
116 0 0.0 0.0 0.0
117 12 188.984526283 229.871774537 215.94985854
118 1 188.895206429 227.814088928 212.660672294
119 1 188.307350904 226.681405311 213.055928361
120 1 188.107646961 226.55430926 214.476421761
121 1 188.387128465 227.572421556 215.391195854
122 1 188.868592209 228.840736511 215.002662985
123 1 189.101604066 228.924456896 213.583966278
124 8 189.02280399 228.078338384 210.908886006
125 1 187.172415988 229.930648248 210.063698829
126 1 185.97331327 230.402408184 209.535041877
127 12 185.700133995 231.664496504 208.984580636
128 1 184.904235022 229.529257665 209.50079469
129 1 185.071571762 228.196428182 209.829648266
130 1 186.303590666 227.77492351 210.350901177
131 1 187.396321825 228.613890702 210.49861287
132 4 189.541752648 226.792669399 210.170697137
133 4 190.032407338 229.17163194 210.446081096
134 7 188.078063962 225.956497752 212.448900085
135 7 187.630140232 225.75085775 214.723440664
136 7 189.524395601 229.76026863 213.203138238
137 7 188.006865978 230.561852208 210.029201863
138 7 184.21539452 227.598080601 209.751873079
139 7 186.375532606 226.821656074 210.737716063
140 7 188.098098233 227.423952399 216.425066064
141 7 183.918432147 229.713565857 209.234223921
142 0 0.0 0.0 0.0
143 0 0.0 0.0 0.0
144 0 0.0 0.0 0.0
145 0 0.0 0.0 0.0
146 12 183.420758326 231.535845581 222.968302426
147 1 182.440178342 230.291550096 219.699400676
148 1 181.543286567 231.256263163 219.248333025
149 1 181.328271574 232.418757119 219.9948483
150 1 182.004579756 232.56871377 221.240328339
151 1 182.832843806 231.522160086 221.788800259
152 1 183.012762369 230.388480495 220.987185846
153 8 182.753592707 228.919381385 218.807673209
154 1 182.300797984 226.682737873 220.242503823
155 1 181.706555594 225.375411161 220.374830075
156 12 182.35944507 224.36348417 221.086672964
157 1 180.535193711 225.1362433 219.665716654
158 1 179.799848406 226.21073112 219.069288265
159 1 180.413542939 227.465431117 218.870734791
160 1 181.709191018 227.646554511 219.37248205
161 4 184.264048431 228.366792563 218.767300588
162 4 182.285646317 229.016553428 217.313348968
163 7 181.018823759 231.245217213 218.43455073
164 7 180.687690067 167.616656198 219.758298599
165 7 183.417623387 229.504478928 221.24880194
166 7 183.201234986 226.959076772 220.662870023
167 7 178.846904025 225.963523356 218.686949327
168 7 179.947350911 228.126454264 218.269761037
169 7 181.749595639 167.92603635 221.731387426
170 7 180.222296718 224.193745833 219.529965501
171 0 0.0 0.0 0.0
172 0 0.0 0.0 0.0
173 0 0.0 0.0 0.0
174 0 0.0 0.0 0.0
175 12 177.985679087 185.341167235 177.652563819
176 1 179.640394721 187.165451235 180.508794437
177 1 179.925013789 186.109317009 181.399221866
178 1 179.531643503 184.804294679 181.088619924
179 1 178.903577673 184.547388057 179.84662698
180 1 178.698685411 185.588958423 178.884445639
181 1 179.155092506 186.914669837 179.241956773
182 8 180.236285096 188.718169197 181.033780735
183 1 178.138112693 190.412409719 180.215467044
184 1 177.484295402 191.617475422 180.287723609
185 9 176.492752075 191.966893025 179.459479965
186 1 177.919304349 192.667546082 181.203404048
187 1 178.947406317 192.359730834 182.067657
188 1 179.485136269 191.050862478 182.120980237
189 1 179.167513244 190.132624374 181.162832016
190 4 181.415202342 188.938273722 179.996135909
191 4 181.153224941 188.49202408 182.304124649
192 7 180.37871594 186.271155989 182.299682803
193 7 179.645500706 184.021690322 181.677111619
194 7 179.21262611 187.732459699 178.641745508
195 7 177.656730929 189.699200968 179.600771895
196 7 179.349314037 193.047761883 182.739634912
197 7 180.162774005 190.813548392 182.859825723
198 7 178.6401055 183.668538592 179.610853774
199 7 177.594976159 193.612704484 181.248564771
200 0 0.0 0.0 0.0
201 0 0.0 0.0 0.0
202 0 0.0 0.0 0.0
203 7 176.014264586 192.868718633 179.584868723
204 12 176.679328437 180.669397731 219.631759071
205 1 173.210668275 181.950206614 220.155898345
206 1 173.275052669 182.682285263 221.346490025
207 1 174.593189678 182.724680333 221.923656116
208 1 175.714095251 182.059690126 221.351124123
209 1 175.586920388 181.315733959 220.150947696
210 1 174.280372706 181.216450468 219.642694836
211 8 171.573700933 181.887550498 219.418626115
212 1 169.578065899 182.986665729 220.979527251
213 1 168.758173498 183.130202865 222.072455917
214 12 168.279643712 184.384819753 222.425479888
215 1 168.601720278 182.005994349 222.8357033
216 1 169.347075058 180.794910407 222.6263217
217 1 170.334058564 180.709440869 221.602494812
218 1 170.424616099 181.849374948 220.788068525
219 4 171.413874743 180.536713315 218.587024465
220 4 171.416138216 183.247882667 218.584522973
221 7 172.468660322 183.221380645 221.639382626
222 7 174.766672249 183.280873315 222.76319971
223 7 173.959377202 180.692434365 218.79651497
224 7 169.710124465 183.751344971 220.402159954
225 7 169.330104796 180.048892398 223.292271647
226 7 170.800416827 179.74979913 221.425644458
227 7 176.513961773 182.06110122 221.924019368
228 7 168.151701988 182.001982053 223.607627514
229 0 0.0 0.0 0.0
230 0 0.0 0.0 0.0
231 0 0.0 0.0 0.0
232 0 0.0 0.0 0.0
233 12 227.605914497 185.551610021 198.161579791
234 1 227.745010329 185.329089895 201.82335791
235 1 229.048484523 184.975462367 202.059574502
236 1 229.957990195 184.662120101 200.925782977
237 1 229.445221873 184.875261338 199.682371184
238 1 228.098513893 185.336448813 199.419354564
239 1 227.328823164 185.602411019 200.575292456
240 8 226.609936711 185.612460607 203.170543381
241 1 226.975718563 183.758315827 205.082586946
242 1 227.647062252 183.288456622 206.244369146
243 12 227.406004488 181.927096717 206.479744188
244 1 228.427660197 184.18736396 207.048611171
245 1 228.547532086 185.588112267 206.721971545
246 1 227.857003632 185.957903174 205.54188603
247 1 227.155533216 185.085294179 204.697858862
248 4 225.20647929 185.032206267 202.906010328
249 4 226.485341436 187.194931829 203.217267754
250 7 229.449630339 184.682079605 202.975030215
251 7 230.885819295 184.221034421 201.144669169
252 7 226.419780089 186.042794271 200.44650232
253 7 226.537455903 183.313605285 204.361748479
254 7 229.090533814 186.345336186 207.303121018
255 7 227.835047816 186.949846158 205.230135037
256 7 230.104231559 184.741626659 198.873422619
257 7 228.864999564 183.866034741 207.90036594
258 0 0.0 0.0 0.0
259 0 0.0 0.0 0.0
260 0 0.0 0.0 0.0
261 0 0.0 0.0 0.0
262 12 197.046970719 194.19878424 209.275872465
263 1 195.253178486 192.090836318 206.861381226
264 1 194.080736688 191.757118501 207.455320263
265 1 193.800644593 192.374003042 208.69704006
266 1 194.791632608 193.185813002 209.325490369
267 1 196.019830893 193.390524427 208.750472635
268 1 196.25776448 192.875614008 207.461222926
269 8 195.655182348 191.583007095 205.218714392
270 1 196.501503839 189.240654309 206.360588981
271 1 196.982813348 187.946738803 206.320462933
272 12 197.459279708 187.373629038 207.529756446
273 1 197.137252422 187.33167424 205.100692861
274 1 196.674371942 187.848844304 203.924446079
275 1 196.290610416 189.192251777 203.950479981
276 1 196.115678888 189.865766283 205.158886135
277 4 196.973330936 192.309679795 204.781032089
278 4 194.594601873 191.973896053 204.173178714
279 7 193.380957194 191.242202882 206.89241057
280 7 192.887951362 192.240009383 209.153965201
281 7 197.160256502 193.103725247 207.060323605
282 7 196.448752392 189.792195622 207.223194956
283 7 196.635669754 187.308710311 203.052953663
284 7 196.027299606 189.645682478 203.109755517
285 7 194.639818438 193.709361043 210.158807787
286 7 197.585388051 186.358124781 204.992693189
287 0 0.0 0.0 0.0
288 0 0.0 0.0 0.0
289 0 0.0 0.0 0.0
290 0 0.0 0.0 0.0
291 12 190.351030198 200.903587843 226.584939799
292 1 192.045257217 200.340348002 223.295674603
293 1 191.100583626 199.642689284 222.51640159
294 1 189.847924731 199.251523722 223.115737983
295 1 189.578405725 199.669535324 224.410466301
296 1 190.492726322 200.436503437 225.21312273
297 1 191.732520186 200.759629798 224.596776763
298 8 193.574018247 200.727812863 222.519211211
299 1 195.235644054 199.580378403 224.442683984
300 1 195.923668662 198.490004125 225.038460665
301 12 196.190636581 198.392270575 226.411387953
302 1 196.145404343 197.362351734 224.200026174
303 1 195.656210016 197.281922129 222.9656708
304 1 194.868153481 198.38247702 222.411868472
305 1 194.709838561 199.592678896 223.194127267
306 4 193.839580816 202.170485733 223.149821536
307 4 193.693423633 200.914089737 220.896046786
308 7 191.342677378 199.386461866 221.506454409
309 7 189.172505952 198.849583047 222.486340892
310 7 192.348952588 201.34669944 225.081584643
311 7 195.057474588 200.398660926 224.979766118
312 7 195.887812556 196.489052936 222.334771812
313 7 194.535460476 198.244740027 221.546471602
314 7 188.622676891 199.362956893 224.846580648
315 7 196.737653935 196.658103369 224.490643575
316 0 0.0 0.0 0.0
317 0 0.0 0.0 0.0
318 0 0.0 0.0 0.0
319 0 0.0 0.0 0.0
320 12 205.688622204 204.435795221 222.380140644
321 1 208.518569295 202.025126399 222.635452117
322 1 209.11444949 202.144296565 221.359708329
323 1 208.629442637 203.111170931 220.489145412
324 1 207.490486923 203.905638651 220.848949799
325 1 206.864966122 203.740446901 222.081162077
326 1 207.373203054 202.783585157 223.008218939
327 8 209.09957608 200.843108 223.808829911
328 1 207.858343168 198.424224268 223.341087076
329 1 207.092642885 197.269413785 223.661110867
330 12 207.252852785 196.038835417 223.021641024
331 1 206.189186288 197.430904247 224.719472459
332 1 205.969494305 198.68411069 225.3351498
333 1 206.767627358 199.771237924 225.039751444
334 1 207.84196493 199.623687999 224.093446774
335 4 209.219961765 201.601403641 225.240648596
336 4 210.451592716 200.27921355 223.210224324
337 7 209.84647658 201.47501417 221.106853479
338 7 209.047845562 203.348195541 219.546322428
339 7 206.928264654 202.625084803 223.947782806
340 7 208.431874225 198.566699857 222.54034222
341 7 205.184277514 198.740898466 226.111972653
342 7 206.636340839 200.694595922 225.443792958
343 7 206.948179907 204.480571788 220.154550985
344 7 205.646679309 196.729032309 225.113234505
345 0 0.0 0.0 0.0
346 0 0.0 0.0 0.0
347 0 0.0 0.0 0.0
348 0 0.0 0.0 0.0
349 12 192.467400822 176.897931276 216.266376286
350 1 192.16213316 179.412612515 218.89216042
351 1 193.041599621 180.43737952 218.459170998
352 1 193.715602499 180.337517315 217.29189398
353 1 193.650184516 179.088503035 216.649397802
354 1 192.805419619 178.002221881 217.037244816
355 1 192.109398478 178.151175356 218.256195533
356 8 191.372926813 179.649515159 220.372834692
357 1 189.647903964 177.691317651 221.378420154
358 1 189.355852978 176.604121412 222.183372868
359 12 188.08109342 176.445978801 222.624217552
360 1 190.388318183 175.809235437 222.654725002
361 1 191.714862273 176.150284701 222.288570215
362 1 192.074489284 177.289501199 221.489731045
363 1 191.021132799 178.105446156 221.152587782
364 4 189.888609452 180.180120534 220.030072469
365 4 192.141233251 180.827945229 221.133884695
366 7 193.057047492 181.308163677 218.984513289
367 7 194.297646142 181.103765511 216.905865737
368 7 191.513489591 177.392108404 218.531946341
369 7 188.983466869 178.347715313 221.125001436
370 7 192.500698996 175.423398532 222.475527605
371 7 193.092273496 177.528322776 221.234661431
372 7 194.164595451 179.13499984 215.693780489
373 7 190.247324466 175.026475417 223.213403588
374 0 0.0 0.0 0.0
375 0 0.0 0.0 0.0
376 0 0.0 0.0 0.0
377 0 0.0 0.0 0.0
378 12 230.4180854 208.473257853 220.773637532
379 1 232.183260511 205.214693052 220.654221247
380 1 231.727560385 204.570273079 221.849672786
381 1 230.75197919 205.208320433 222.578335734
382 1 230.295063472 206.486960279 222.241263775
383 1 230.81796915 207.185177346 221.143555249
384 1 231.74514728 206.486812254 220.265539692
385 8 167.8074455 204.42590522 219.640323649
386 1 232.739129115 202.27147899 218.025357622
387 1 232.045361302 201.543270721 216.973505639
388 12 232.129944855 200.192710018 216.732164823
389 1 231.254925445 202.34876062 216.110566819
390 1 231.212426261 203.734465108 216.211474303
391 1 231.880456586 204.359848415 217.277465486
392 1 232.568803055 203.62924189 218.264075598
393 4 168.860407871 203.485522585 220.297673193
394 4 168.796391478 205.605460813 219.083409541
395 7 231.983532888 203.710486846 222.251054971
396 7 230.345100598 204.780795607 223.427891768
397 7 232.072379506 206.791508844 219.382423428
398 7 167.920126533 201.921161687 218.658804383
399 7 230.650947977 204.297364694 215.54998158
400 7 231.842573686 205.404173521 217.282727549
401 7 229.466279788 206.897632223 222.840740858
402 7 230.594413684 201.859207401 215.452643761
403 0 0.0 0.0 0.0
404 0 0.0 0.0 0.0
405 0 0.0 0.0 0.0
406 0 0.0 0.0 0.0
407 9 177.184312293 176.792529196 183.112087481
408 1 176.304832951 180.328609632 183.634449963
409 1 176.054600313 180.316981607 184.968155414
410 1 176.134707434 179.133370534 185.655558753
411 1 176.484003312 177.900647915 185.127519087
412 1 176.739323782 177.887922609 183.717655767
413 1 176.565801447 179.094260338 182.96311422
414 8 175.892146023 181.7933619 182.758637582
415 1 173.967131948 180.796844083 181.205339003
416 1 173.357509623 180.349516897 179.99774877
417 12 172.094093287 179.678796489 179.944790387
418 1 174.117718816 180.568624011 178.878290127
419 1 175.362157578 181.365865245 178.964306758
420 1 175.879297401 181.817018387 180.064184308
421 1 175.277488507 181.467433403 181.22577048
422 4 177.031583731 182.931834753 182.979260144
423 4 174.844217934 182.553244521 183.724598445
424 7 175.779075736 181.256615095 185.53998131
425 7 176.012567281 179.117082469 186.641521597
426 7 176.663475367 179.087759105 181.974521064
427 7 173.426359823 180.638051525 182.084270282
428 7 175.781575523 181.519272455 178.082858692
429 7 176.778227367 182.373163415 180.132054373
430 7 176.695104432 177.166347426 185.758040103
431 7 173.831918659 180.201269161 177.958249254
432 0 0.0 0.0 0.0
433 7 177.472589544 176.932963295 182.223037969
434 0 0.0 0.0 0.0
435 0 0.0 0.0 0.0
436 12 192.771502892 168.173172319 209.956300898
437 1 193.621050183 171.341999395 211.832533819
438 1 193.987587279 170.875088354 213.076668853
439 1 194.091137568 169.458066573 213.28262791
440 1 193.780011534 168.537738483 212.276808543
441 1 193.288536894 168.957841055 211.011371938
442 1 193.382043322 170.340853117 210.83505963
443 8 193.283462898 172.995343511 211.376033003
444 1 192.035603338 174.026030724 209.227554859
445 1 190.954617291 174.147396262 208.295555109
446 12 191.232865099 174.802394821 207.067913151
447 1 189.746228281 173.684485896 208.723082201
448 1 189.511571479 173.076337685 209.940724407
449 1 190.596561544 172.874745092 210.793327822
450 1 191.878265543 173.29022405 210.410027669
451 4 194.527845188 173.770063907 210.975288952
452 4 192.793121494 173.667401243 212.761871105
453 7 194.177383045 171.531236918 213.903858969
454 7 194.491869953 169.114098639 214.20207069
455 7 193.145376525 170.819127376 209.99217882
456 7 192.956224511 174.338668367 208.855487659
457 7 188.647105845 172.546074619 210.159007481
458 7 190.475557028 172.385762676 211.630040733
459 7 193.872692125 167.616526618 212.478767276
460 7 188.961463964 173.640175804 208.079698867
461 0 0.0 0.0 0.0
462 0 0.0 0.0 0.0
463 0 0.0 0.0 0.0
464 0 0.0 0.0 0.0
465 12 184.961600788 218.103637908 167.275248154
466 1 186.502895182 218.14278099 229.349486714
467 1 187.766776751 218.67645993 229.667022253
468 1 188.146581335 218.725076755 231.062780597
469 1 187.199572613 218.403184263 232.048618106
470 1 185.820223358 218.163131191 231.737263346
471 1 185.541586854 217.978968342 230.392034713
472 8 185.776182713 217.871598673 227.747759482
473 1 185.979470246 215.363970649 226.686645822
474 1 186.688290569 214.380516587 225.963641353
475 12 186.125431829 213.132967496 225.677440665
476 1 187.967397236 214.692715583 225.523456307
477 1 188.649033864 215.825476852 225.923542891
478 1 187.918690209 216.84884448 226.498843419
479 1 186.618143351 216.638025365 226.908388591
480 4 185.879026276 219.297978899 226.937541957
481 4 184.139795488 217.6324489 227.926257025
482 7 188.459043908 219.12776153 229.064597246
483 7 189.113333268 218.855278637 231.33327365
484 7 184.568225406 217.753838883 230.221795447
485 7 185.008716195 215.123778574 226.918163975
486 7 189.588957551 215.976299172 225.700922342
487 7 188.444325903 217.695141019 226.772742067
488 7 187.521125052 218.490890057 167.490660102
489 7 188.436502524 214.187023771 224.88752037
490 0 0.0 0.0 0.0
491 0 0.0 0.0 0.0
492 0 0.0 0.0 0.0
493 0 0.0 0.0 0.0
494 12 203.3921901 206.332404301 195.20640994
495 1 200.377067352 205.653167258 197.360943731
496 1 200.618516571 204.399175865 197.88562735
497 1 201.958737711 203.866731332 197.710870201
498 1 202.822368401 204.599495442 196.905671554
499 1 202.517687886 205.708685242 196.131653273
500 1 201.327113281 206.255724879 196.541446541
501 8 199.033819749 206.799359878 197.595148702
502 1 199.915991286 207.84851156 199.887898055
503 1 200.205160656 207.94869906 201.289859054
504 12 201.275917013 208.738721202 201.670719023
505 1 199.342207882 207.231958217 202.139968985
506 1 198.226150216 206.516249971 201.564762853
507 1 198.052798277 206.485647965 200.245887354
508 1 198.96147074 207.045040916 199.365785482
509 4 197.84209213 205.974834389 197.050383088
510 4 199.346350766 208.160287174 196.921763774
511 7 199.873211888 203.951564597 198.390610787
512 7 202.309756938 202.950215366 198.11020077
513 7 201.158024549 207.120386453 196.005738839
514 7 200.394224623 208.409366663 199.313406558
515 7 197.566825887 205.959676474 202.121870738
516 7 197.29749327 205.937772943 199.836948569
517 7 203.755183626 204.249289044 196.904565338
518 7 199.533778438 207.283795771 203.1361365
519 0 0.0 0.0 0.0
520 0 0.0 0.0 0.0
521 0 0.0 0.0 0.0
522 0 0.0 0.0 0.0
523 12 183.543947403 187.562646482 206.524344366
524 1 184.610937608 184.520143925 204.386220623
525 1 184.064426654 183.542443364 205.210434883
526 1 183.363916105 183.840082814 206.399796779
527 1 183.096249163 185.141370458 206.69452271
528 1 183.727821189 186.284790114 205.996665498
529 1 184.47337506 185.933895798 204.808312057
530 8 185.53740982 183.988856727 203.075671821
531 1 187.881825092 182.604881786 202.886156017
532 1 189.010198155 182.023144259 203.517786255
533 12 189.583946074 180.860664034 202.983281777
534 1 189.57060056 182.796959496 204.578553409
535 1 188.910553075 183.762179251 205.254632614
536 1 187.666779918 184.122918613 204.787331739
537 1 187.087387727 183.520557867 203.651487982
538 4 185.676143269 185.185334614 202.005764897
539 4 184.760740963 182.709124546 202.520388942
540 7 184.186108495 182.636112394 204.913662512
541 7 182.991527543 183.076980496 207.031867306
542 7 184.801815748 186.728330927 204.13719257
543 7 187.476993063 182.49320043 201.864194557
544 7 189.334077488 184.292779323 206.086109051
545 7 187.180574038 184.824597111 205.383089444
546 7 182.419076142 185.451595969 207.409858057
547 7 190.444563817 182.535988195 204.807730452
548 0 0.0 0.0 0.0
549 0 0.0 0.0 0.0
550 0 0.0 0.0 0.0
551 0 0.0 0.0 0.0
552 12 224.962833327 184.69840731 183.525088991
553 1 221.424520061 186.197511994 183.208746837
554 1 221.33573458 186.74940042 184.535130796
555 1 222.466014225 186.581999566 185.391269497
556 1 223.645202969 185.996997308 184.998134937
557 1 223.746866922 185.37426556 183.70493062
558 1 222.626753787 185.490457721 182.855137126
559 8 220.174028509 186.358370628 182.041691558
560 1 219.257804688 188.900283358 181.557960124
561 1 218.284969277 189.932263447 181.691608966
562 12 218.183505137 190.9971 180.86435345
563 1 217.375494713 189.908611538 182.765661548
564 1 217.364121848 188.758948462 183.617445012
565 1 218.16881335 187.730809924 183.404337775
566 1 219.207233674 187.740995569 182.392557775
567 4 219.314851503 184.99844529 182.155117872
568 4 220.64727115 186.643490147 180.540636343
569 7 220.459895277 187.182807873 184.928588259
570 7 222.330071149 186.863153291 186.394406019
571 7 222.614731376 185.018561694 181.93703491
572 7 220.025569996 188.966043147 180.914120791
573 7 216.667764092 188.649309085 184.363018541
574 7 218.025463573 186.884740324 183.955723288
575 7 224.44098014 185.973056609 185.612056767
576 7 216.763356169 190.711020409 182.994771509
577 0 0.0 0.0 0.0
578 0 0.0 0.0 0.0
579 0 0.0 0.0 0.0
580 0 0.0 0.0 0.0
581 12 197.163392476 184.754856487 197.925109584
582 1 193.875524929 184.111138672 199.623891166
583 1 193.016083598 183.974528024 198.569164291
584 1 193.491462849 183.755027913 197.285384864
585 1 194.874113707 183.895093871 197.107755683
586 1 195.796213898 184.402883898 198.024263449
587 1 195.215113725 184.493481031 199.339962702
588 8 193.360502036 183.942891521 201.317794173
589 1 192.463328441 186.434536061 201.557064611
590 1 191.495296304 187.461979341 201.553833679
591 12 191.764767394 188.796742631 201.529432668
592 1 190.094956651 187.102466052 201.51682144
593 1 189.727556095 185.728863645 201.593605462
594 1 190.779557286 184.738106603 201.611709245
595 1 192.149532395 185.11063394 201.508488992
596 4 194.67640569 183.979984642 202.234065469
597 4 193.065810147 182.445471051 201.794581835
598 7 192.079064218 183.980209001 198.717660703
599 7 193.022086897 183.396667521 196.40417045
600 7 195.776308391 184.79016169 200.153723438
601 7 193.446635079 186.806749621 201.613544135
602 7 188.673334956 185.463374257 201.720343006
603 7 190.70645485 183.719265226 201.688087912
604 7 195.284391179 183.877708492 196.110979163
605 7 189.357052806 187.836433807 201.439687067
606 0 0.0 0.0 0.0
607 0 0.0 0.0 0.0
608 0 0.0 0.0 0.0
609 0 0.0 0.0 0.0
610 12 183.944774207 210.994560503 231.139385981
611 1 181.338108722 213.254605406 229.903826285
612 1 181.374910817 213.00865651 228.554726098
613 1 182.366744847 212.157056274 228.048910302
614 1 183.263013591 211.470392764 228.923244638
615 1 183.183486584 211.72789431 230.28309367
616 1 182.221012653 212.63054665 230.796846619
617 8 180.116215915 214.231322167 230.606392895
618 1 178.914632475 215.432716004 228.612315058
619 1 177.863487017 215.715894006 227.764407041
620 12 178.042114596 216.55730072 226.619606067
621 1 176.632849213 215.029193103 228.048236274
622 1 176.462643229 214.105398559 229.091346635
623 1 177.552815916 213.791547969 229.881117708
624 1 178.725561915 214.542975991 229.641138776
625 4 180.752203342 215.651313825 231.052134903
626 4 179.748842152 213.653338599 232.043170058
627 7 180.676266281 213.45527201 227.939187465
628 7 182.56565331 211.999423192 226.985908517
629 7 182.089282808 212.762849832 231.770000108
630 7 179.805647014 215.938312326 228.517376144
631 7 175.547701043 213.572699715 229.256594385
632 7 177.613553956 213.035964797 230.515465173
633 7 184.012538084 210.957165678 228.471965873
634 7 175.927811443 215.285577775 227.398748979
635 0 0.0 0.0 0.0
636 0 0.0 0.0 0.0
637 0 0.0 0.0 0.0
638 0 0.0 0.0 0.0
639 12 196.543148731 224.71594107 182.827201876
640 1 194.709101873 227.927472181 182.264552889
641 1 195.725648262 228.796126726 181.807275165
642 1 197.022733293 228.319941636 181.57857988
643 1 197.31580179 227.005585331 181.973787271
644 1 196.3237226 226.056655479 182.424348305
645 1 195.016864153 226.571872646 182.490992592
646 8 193.169028232 228.687407477 182.647802088
647 1 191.390816345 227.177036668 184.004703838
648 1 190.299698541 226.236871814 184.135499496
649 12 189.666596905 225.9389058 185.290353627
650 1 189.847345625 225.638640136 182.899205596
651 1 190.447098288 226.124908364 181.709939194
652 1 191.431170066 227.024535275 181.610361927
653 1 191.979896826 227.506555932 182.812333829
654 4 192.986198897 229.554203425 181.326493589
655 4 193.457574297 229.633771645 183.941117876
656 7 195.50152212 229.834776203 181.538251105
657 7 197.726103376 228.894553834 181.432891387
658 7 194.217482621 226.080914513 182.740833558
659 7 191.741901669 227.517043091 184.928335723
660 7 190.090932797 225.797167031 180.842884566
661 7 191.754483751 227.391412771 180.710613638
662 7 198.223914623 226.708989146 181.974675676
663 7 189.151376624 224.866488601 182.774198459
664 0 0.0 0.0 0.0
665 0 0.0 0.0 0.0
666 0 0.0 0.0 0.0
667 0 0.0 0.0 0.0