ITEM: TIMESTEP
0
ITEM: NUMBER OF ATOMS
72693
ITEM: BOX BOUNDS pp pp pp
7.6336190900319167e+01 1.2366380909968285e+02
7.6336190900319167e+01 1.2366380909968285e+02
7.6336190900319167e+01 1.2366380909968285e+02
ITEM: ATOMS id type x y z
1 12 119.009 88.5185 107.453
8078 12 166.336620885 88.5185 107.453
16155 12 71.6813844862 88.5185 107.453
24232 12 119.009 135.846119481 107.453
32309 12 119.009 41.1908830824 107.453
40386 12 166.336620885 135.846119481 107.453
48463 12 166.336620885 41.1908830824 107.453
56540 12 71.6813844862 41.1908830824 107.453
64617 12 71.6813844862 135.846119481 107.453
2 1 119.173 92.1573 108.686
8079 1 166.50061472 92.1573 108.686
16156 1 71.8453783216 92.1573 108.686
24233 1 119.173 139.484921056 108.686
32310 1 119.173 44.8296846571 108.686
40387 1 166.50061472 139.484921056 108.686
48464 1 166.50061472 44.8296846571 108.686
56541 1 71.8453783216 44.8296846571 108.686
64618 1 71.8453783216 139.484921056 108.686
3 1 119.677 92.0591 110.019
8080 1 167.004620152 92.0591 110.019
16157 1 72.3493837538 92.0591 110.019
24234 1 119.677 139.386715489 110.019
32311 1 119.677 44.7314790907 110.019
40388 1 167.004620152 139.386715489 110.019
48465 1 167.004620152 44.7314790907 110.019
56542 1 72.3493837538 44.7314790907 110.019
64619 1 72.3493837538 139.386715489 110.019
4 1 119.784 90.7502 110.482
8081 1 167.111614781 90.7502 110.482
16158 1 72.4563783827 90.7502 110.482
24235 1 119.784 138.077816564 110.482
32312 1 119.784 43.4225801649 110.482
40389 1 167.111614781 138.077816564 110.482
48466 1 167.111614781 43.4225801649 110.482
56543 1 72.4563783827 43.4225801649 110.482
64620 1 72.4563783827 138.077816564 110.482
5 1 119.632 89.6355 109.631
8082 1 166.959621984 89.6355 109.631
16159 1 72.3043855848 89.6355 109.631
24236 1 119.632 136.963116246 109.631
32313 1 119.632 42.3078798475 109.631
40390 1 166.959621984 136.963116246 109.631
48467 1 166.959621984 42.3078798475 109.631
56544 1 72.3043855848 42.3078798475 109.631
64621 1 72.3043855848 136.963116246 109.631
6 1 119.219 89.706 108.261
8083 1 166.546619969 89.706 108.261
16160 1 71.8913835707 89.706 108.261
24237 1 119.219 137.033619481 108.261
32314 1 119.219 42.3783830824 108.261
40391 1 166.546619969 137.033619481 108.261
48468 1 166.546619969 42.3783830824 108.261
56545 1 71.8913835707 42.3783830824 108.261
64622 1 71.8913835707 137.033619481 108.261
7 1 119.019 91.0016 107.822
8084 1 166.346615392 91.0016 107.822
16161 1 71.691378993 91.0016 107.822
24238 1 119.019 138.329220372 107.822
32315 1 119.019 43.6739839735 107.822
40392 1 166.346615392 138.329220372 107.822
48469 1 166.346615392 43.6739839735 107.822
56546 1 71.691378993 43.6739839735 107.822
64623 1 71.691378993 138.329220372 107.822
8 8 118.866 93.7684 108.25
8085 8 166.193615514 93.7684 108.25
16162 8 71.5383791151 93.7684 108.25
24239 8 118.866 141.096020299 108.25
32316 8 118.866 46.4407839002 108.25
40393 8 166.193615514 141.096020299 108.25
48470 8 166.193615514 46.4407839002 108.25
56547 8 71.5383791151 46.4407839002 108.25
64624 8 71.5383791151 141.096020299 108.25
9 1 116.742 93.3982 106.48
8086 1 164.069614965 93.3982 106.48
16163 1 69.4143785658 93.3982 106.48
24240 1 116.742 140.725819188 106.48
32317 1 116.742 46.0705827894 106.48
40394 1 164.069614965 140.725819188 106.48
48471 1 164.069614965 46.0705827894 106.48
56548 1 69.4143785658 46.0705827894 106.48
64625 1 69.4143785658 140.725819188 106.48
10 1 115.531 93.722 105.898
8087 1 162.858616429 93.722 105.898
16164 1 68.2033800306 93.722 105.898
24241 1 115.531 141.049618321 105.898
32318 1 115.531 46.3943819227 105.898
40395 1 162.858616429 141.049618321 105.898
48472 1 162.858616429 46.3943819227 105.898
56549 1 68.2033800306 46.3943819227 105.898
64626 1 68.2033800306 141.049618321 105.898
11 12 115.36 93.497 104.506
8088 12 162.68761881 93.497 104.506
16165 12 68.032382411 93.497 104.506
24242 12 115.36 140.824619847 104.506
32319 12 115.36 46.1693834486 104.506
40396 12 162.68761881 140.824619847 104.506
48473 12 162.68761881 46.1693834486 104.506
56550 12 68.032382411 46.1693834486 104.506
64627 12 68.032382411 140.824619847 104.506
12 1 114.592 94.3725 106.651
8089 1 161.919621068 94.3725 106.651
16166 1 67.2643846693 94.3725 106.651
24243 1 114.592 141.700115758 106.651
32320 1 114.592 47.0448793592 106.651
40397 1 161.919621068 141.700115758 106.651
48474 1 161.919621068 47.0448793592 106.651
56551 1 67.2643846693 47.0448793592 106.651
64628 1 67.2643846693 141.700115758 106.651
13 1 114.925 94.8501 107.883
8090 1 162.252621251 94.8501 107.883
16167 1 67.5973848524 94.8501 107.883
24244 1 114.925 142.177715856 107.883
32321 1 114.925 47.5224794569 107.883
40398 1 162.252621251 142.177715856 107.883
48475 1 162.252621251 47.5224794569 107.883
56552 1 67.5973848524 47.5224794569 107.883
64629 1 67.5973848524 142.177715856 107.883
14 1 116.214 94.648 108.451
8091 1 163.541615087 94.648 108.451
16168 1 68.8863786878 94.648 108.451
24245 1 116.214 141.975620824 108.451
32322 1 116.214 47.3203844251 108.451
40399 1 163.541615087 141.975620824 108.451
48476 1 163.541615087 47.3203844251 108.451
56553 1 68.8863786878 47.3203844251 108.451
64630 1 68.8863786878 141.975620824 108.451
15 1 117.172 93.9016 107.699
8092 1 164.49961527 93.9016 107.699
16169 1 69.8443788709 93.9016 107.699
24246 1 117.172 141.229221898 107.699
32323 1 117.172 46.5739854994 107.699
40400 1 164.49961527 141.229221898 107.699
48477 1 164.49961527 46.5739854994 107.699
56554 1 69.8443788709 46.5739854994 107.699
64631 1 69.8443788709 141.229221898 107.699
16 4 119.725 93.8134 106.93
8093 4 167.052616673 93.8134 106.93
16170 4 72.3973802748 93.8134 106.93
24247 4 119.725 141.141018468 106.93
32324 4 119.725 46.4857820692 106.93
40401 4 167.052616673 141.141018468 106.93
48478 4 167.052616673 46.4857820692 106.93
56555 4 72.3973802748 46.4857820692 106.93
64632 4 72.3973802748 141.141018468 106.93
17 4 119.464 94.7167 109.34
8094 4 166.791615087 94.7167 109.34
16171 4 72.1363786878 94.7167 109.34
24248 4 119.464 142.044315892 109.34
32325 4 119.464 47.3890794935 109.34
40402 4 166.791615087 142.044315892 109.34
48479 4 166.791615087 47.3890794935 109.34
56556 4 72.1363786878 47.3890794935 109.34
64633 4 72.1363786878 142.044315892 109.34
18 7 119.9 92.8039 110.67
8095 7 167.227619725 92.8039 110.67
16172 7 72.5723833265 92.8039 110.67
24249 7 119.9 140.131519872 110.67
32326 7 119.9 45.476283473 110.67
40403 7 167.227619725 140.131519872 110.67
48480 7 167.227619725 45.476283473 110.67
56557 7 72.5723833265 45.476283473 110.67
64634 7 72.5723833265 140.131519872 110.67
19 7 119.993 90.607 111.508
8096 7 167.320614415 90.607 111.508
16173 7 72.6653780165 90.607 111.508
24250 7 119.993 137.934620458 111.508
32327 7 119.993 43.2793840589 111.508
40404 7 167.320614415 137.934620458 111.508
48481 7 167.320614415 43.2793840589 111.508
56558 7 72.6653780165 43.2793840589 111.508
64635 7 72.6653780165 137.934620458 111.508
20 7 118.895 91.0931 106.832
8097 7 166.222614842 91.0931 106.832
16174 7 71.5673784437 91.0931 106.832
24251 7 118.895 138.420719701 106.832
32328 7 118.895 43.7654833021 106.832
40405 7 166.222614842 138.420719701 106.832
48482 7 166.222614842 43.7654833021 106.832
56559 7 71.5673784437 43.7654833021 106.832
64636 7 71.5673784437 138.420719701 106.832
21 7 117.289 92.7957 105.982
8098 7 164.616619664 92.7957 105.982
16175 7 69.9613832655 92.7957 105.982
24252 7 117.289 140.123318273 105.982
32329 7 117.289 45.4680818739 105.982
40406 7 164.616619664 140.123318273 105.982
48483 7 164.616619664 45.4680818739 105.982
56560 7 69.9613832655 45.4680818739 105.982
64637 7 69.9613832655 140.123318273 105.982
22 7 114.204 95.3391 108.25
8099 7 161.53162058 95.3391 108.25
16176 7 66.876384181 95.3391 108.25
24253 7 114.204 142.666721898 108.25
32330 7 114.204 48.0114854994 108.25
40407 7 161.53162058 142.666721898 108.25
48484 7 161.53162058 48.0114854994 108.25
56561 7 66.876384181 48.0114854994 108.25
64638 7 66.876384181 142.666721898 108.25
23 7 116.511 94.8882 109.374
8100 7 163.838619786 94.8882 109.374
16177 7 69.1833833876 94.8882 109.374
24254 7 116.511 142.215817052 109.374
32331 7 116.511 47.5605806532 109.374
40408 7 163.838619786 142.215817052 109.374
48485 7 163.838619786 47.5605806532 109.374
56562 7 69.1833833876 47.5605806532 109.374
64639 7 69.1833833876 142.215817052 109.374
24 7 119.925 88.7603 110.105
8101 7 167.252621251 88.7603 110.105
16178 7 72.5973848524 88.7603 110.105
24255 7 119.925 136.087917882 110.105
32332 7 119.925 41.4326814833 110.105
40409 7 167.252621251 136.087917882 110.105
48486 7 167.252621251 41.4326814833 110.105
56563 7 72.5973848524 41.4326814833 110.105
64640 7 72.5973848524 136.087917882 110.105
25 7 113.69 94.7493 106.371
8102 7 161.017620641 94.7493 106.371
16179 7 66.362384242 94.7493 106.371
24256 7 113.69 142.076916295 106.371
32333 7 113.69 47.4216798963 106.371
40410 7 161.017620641 142.076916295 106.371
48487 7 161.017620641 47.4216798963 106.371
56564 7 66.362384242 47.4216798963 106.371
64641 7 66.362384242 142.076916295 106.371
26 12 99.8557 89.1151 107.635
8103 12 147.183315831 89.1151 107.635
16180 12 52.5280794325 89.1151 107.635
24257 12 99.8557 136.442715245 107.635
32334 12 99.8557 41.7874788465 107.635
40411 12 147.183315831 136.442715245 107.635
48488 12 147.183315831 41.7874788465 107.635
56565 12 52.5280794325 41.7874788465 107.635
64642 12 52.5280794325 136.442715245 107.635
27 1 98.1269 87.7424 104.609
8104 1 145.454517919 87.7424 104.609
16181 1 50.7992815199 87.7424 104.609
24258 1 98.1269 135.070019322 104.609
32335 1 98.1269 40.4147829237 104.609
40412 1 145.454517919 135.070019322 104.609
48489 1 145.454517919 40.4147829237 104.609
56566 1 50.7992815199 40.4147829237 104.609
64643 1 50.7992815199 135.070019322 104.609
28 1 96.793 88.1664 105.02
8105 1 144.120617467 88.1664 105.02
16182 1 49.4653810682 88.1664 105.02
24259 1 96.793 135.494015294 105.02
32336 1 96.793 40.8387788954 105.02
40413 1 144.120617467 135.494015294 105.02
48490 1 144.120617467 40.8387788954 105.02
56567 1 49.4653810682 40.8387788954 105.02
64644 1 49.4653810682 135.494015294 105.02
29 1 96.5243 88.7954 106.222
8106 1 143.851917821 88.7954 106.222
16183 1 49.1966814222 88.7954 106.222
24260 1 96.5243 136.123020726 106.222
32337 1 96.5243 41.4677843275 106.222
40414 1 143.851917821 136.123020726 106.222
48491 1 143.851917821 41.4677843275 106.222
56568 1 49.1966814222 41.4677843275 106.222
64645 1 49.1966814222 136.123020726 106.222
30 1 97.4767 89.0516 107.12
8107 1 144.804318028 89.0516 107.12
16184 1 50.1490816297 89.0516 107.12
24261 1 97.4767 136.379215795 107.12
32338 1 97.4767 41.7239793959 107.12
40415 1 144.804318028 136.379215795 107.12
48492 1 144.804318028 41.7239793959 107.12
56569 1 50.1490816297 41.7239793959 107.12
64646 1 50.1490816297 136.379215795 107.12
31 1 98.7874 88.7881 106.79
8108 1 146.115017491 88.7881 106.79
16185 1 51.4597810926 88.7881 106.79
24262 1 98.7874 136.115719396 106.79
32339 1 98.7874 41.4604829969 106.79
40416 1 146.115017491 136.115719396 106.79
48493 1 146.115017491 41.4604829969 106.79
56570 1 51.4597810926 41.4604829969 106.79
64647 1 51.4597810926 136.115719396 106.79
32 1 99.0321 88.0068 105.611
8109 1 146.359715062 88.0068 105.611
16186 1 51.7044786634 88.0068 105.611
24263 1 99.0321 135.33441599 105.611
32340 1 99.0321 40.6791795912 105.611
40417 1 146.359715062 135.33441599 105.611
48494 1 146.359715062 40.6791795912 105.611
56571 1 51.7044786634 40.6791795912 105.611
64648 1 51.7044786634 135.33441599 105.611
33 8 98.3792 87.0998 102.984
8110 8 145.706821996 87.0998 102.984
16187 8 51.051585597 87.0998 102.984
24264 8 98.3792 134.427418309 102.984
32341 8 98.3792 39.7721819105 102.984
40418 8 145.706821996 134.427418309 102.984
48495 8 145.706821996 39.7721819105 102.984
56572 8 51.051585597 39.7721819105 102.984
64649 8 51.051585597 134.427418309 102.984
34 1 100.78 87.5732 101.748
8111 1 148.107616979 87.5732 101.748
16188 1 53.4523805799 87.5732 101.748
24265 1 100.78 134.90081461 101.748
32342 1 100.78 40.2455782118 101.748
40419 1 148.107616979 134.90081461 101.748
48496 1 148.107616979 40.2455782118 101.748
56573 1 53.4523805799 40.2455782118 101.748
64650 1 53.4523805799 134.90081461 101.748
35 1 101.554 88.4464 101.052
8112 1 148.881619054 88.4464 101.052
16189 1 54.2263826551 88.4464 101.052
24266 1 101.554 135.774021703 101.052
32343 1 101.554 41.1187853041 101.052
40420 1 148.881619054 135.774021703 101.052
48497 1 148.881619054 41.1187853041 101.052
56574 1 54.2263826551 41.1187853041 101.052
64651 1 54.2263826551 135.774021703 101.052
36 9 102.9 88.2251 101.008
8113 9 150.227619725 88.2251 101.008
16190 9 55.5723833265 88.2251 101.008
24267 9 102.9 135.552715856 101.008
32344 9 102.9 40.8974794569 101.008
40421 9 150.227619725 135.552715856 101.008
48498 9 150.227619725 40.8974794569 101.008
56575 9 55.5723833265 40.8974794569 101.008
64652 9 55.5723833265 135.552715856 101.008
37 1 100.967 89.6408 100.485
8114 1 148.294621068 89.6408 100.485
16191 1 53.6393846693 89.6408 100.485
24268 1 100.967 136.968418675 100.485
32345 1 100.967 42.3131822767 100.485
40422 1 148.294621068 136.968418675 100.485
48499 1 148.294621068 42.3131822767 100.485
56576 1 53.6393846693 42.3131822767 100.485
64653 1 53.6393846693 136.968418675 100.485
38 1 99.6585 89.9537 100.668
8115 1 146.986118871 89.9537 100.668
16192 1 52.330882472 89.9537 100.668
24269 1 99.6585 137.281315404 100.668
32346 1 99.6585 42.6260790052 100.668
40423 1 146.986118871 137.281315404 100.668
48500 1 146.986118871 42.6260790052 100.668
56577 1 52.330882472 42.6260790052 100.668
64654 1 52.330882472 137.281315404 100.668
39 1 98.9177 89.0748 101.367
8116 1 146.245319921 89.0748 101.367
16193 1 51.5900835218 89.0748 101.367
24270 1 98.9177 136.402416783 101.367
32347 1 98.9177 41.7471803846 101.367
40424 1 146.245319921 136.402416783 101.367
48501 1 146.245319921 41.7471803846 101.367
56578 1 51.5900835218 41.7471803846 101.367
64655 1 51.5900835218 136.402416783 101.367
40 1 99.478 87.9966 102.042
8117 1 146.805615026 87.9966 102.042
16194 1 52.1503786268 87.9966 102.042
24271 1 99.478 135.324215489 102.042
32348 1 99.478 40.6689790907 102.042
40425 1 146.805615026 135.324215489 102.042
48502 1 146.805615026 40.6689790907 102.042
56579 1 52.1503786268 40.6689790907 102.042
64656 1 52.1503786268 135.324215489 102.042
41 4 97.0314 87.0595 102.121
8118 4 144.359020787 87.0595 102.121
16195 4 49.7037843885 87.0595 102.121
24272 4 97.0314 134.387119847 102.121
32349 4 97.0314 39.7318834486 102.121
40426 4 144.359020787 134.387119847 102.121
48503 4 144.359020787 39.7318834486 102.121
56580 4 49.7037843885 39.7318834486 102.121
64657 4 49.7037843885 134.387119847 102.121
42 4 98.9359 85.5883 103.197
8119 4 146.263516027 85.5883 103.197
16196 4 51.6082796278 85.5883 103.197
24273 4 98.9359 132.915920812 103.197
32350 4 98.9359 38.2606844129 103.197
40427 4 146.263516027 132.915920812 103.197
48504 4 146.263516027 38.2606844129 103.197
56581 4 51.6082796278 38.2606844129 103.197
64658 4 51.6082796278 132.915920812 103.197
43 7 96.0459 88.0139 104.216
8120 7 143.373516637 88.0139 104.216
16197 7 48.7182802381 88.0139 104.216
24274 7 96.0459 135.341518956 104.216
32351 7 96.0459 40.6862825575 104.216
40428 7 143.373516637 135.341518956 104.216
48505 7 143.373516637 40.6862825575 104.216
56582 7 48.7182802381 40.6862825575 104.216
64659 7 48.7182802381 135.341518956 104.216
44 7 95.5866 89.039 106.418
8121 7 142.914219457 89.039 106.418
16198 7 48.258983058 89.039 106.418
24275 7 95.5866 136.366619664 106.418
32352 7 95.5866 41.7113832655 106.418
40429 7 142.914219457 136.366619664 106.418
48506 7 142.914219457 41.7113832655 106.418
56583 7 48.258983058 41.7113832655 106.418
64660 7 48.258983058 136.366619664 106.418
45 7 99.9316 87.7139 105.455
8122 7 147.259220677 87.7139 105.455
16199 7 52.6039842787 87.7139 105.455
24276 7 99.9316 135.041515904 105.455
32353 7 99.9316 40.3862795057 105.455
40430 7 147.259220677 135.041515904 105.455
48507 7 147.259220677 40.3862795057 105.455
56584 7 52.6039842787 40.3862795057 105.455
64661 7 52.6039842787 135.041515904 105.455
46 7 101.149 86.6814 102.117
8123 7 148.476620275 86.6814 102.117
16200 7 53.8213838758 86.6814 102.117
24277 7 101.149 134.009014684 102.117
32354 7 101.149 39.353778285 102.117
40431 7 148.476620275 134.009014684 102.117
48508 7 148.476620275 39.353778285 102.117
56585 7 53.8213838758 39.353778285 102.117
64662 7 53.8213838758 134.009014684 102.117
47 7 99.4678 90.7817 100.163
8124 7 146.795414525 90.7817 100.163
16201 7 52.1401781263 90.7817 100.163
24278 7 99.4678 138.109318334 100.163
32355 7 99.4678 43.4540819349 100.163
40432 7 146.795414525 138.109318334 100.163
48509 7 146.795414525 43.4540819349 100.163
56586 7 52.1401781263 43.4540819349 100.163
64663 7 52.1401781263 138.109318334 100.163
48 7 97.897 89.1644 101.413
8125 7 145.224621373 89.1644 101.413
16202 7 50.5693849745 89.1644 101.413
24279 7 97.897 136.492016393 101.413
32356 7 97.897 41.836779994 101.413
40433 7 145.224621373 136.492016393 101.413
48510 7 145.224621373 41.836779994 101.413
56587 7 50.5693849745 41.836779994 101.413
64664 7 50.5693849745 136.492016393 101.413
49 7 97.2632 89.5329 107.958
8126 7 144.590817052 89.5329 107.958
16203 7 49.9355806532 89.5329 107.958
24280 7 97.2632 136.860516149 107.958
32357 7 97.2632 42.2052797499 107.958
40434 7 144.590817052 136.860516149 107.958
48511 7 144.590817052 42.2052797499 107.958
56588 7 49.9355806532 42.2052797499 107.958
64665 7 49.9355806532 136.860516149 107.958
50 7 101.389 90.2266 99.7705
8127 7 148.716618138 90.2266 99.7705
16204 7 54.0613817396 90.2266 99.7705
24281 7 101.389 137.554218846 99.7705
32358 7 101.389 42.8989824476 99.7705
40435 7 148.716618138 137.554218846 99.7705
48512 7 148.716618138 42.8989824476 99.7705
56589 7 54.0613817396 42.8989824476 99.7705
64666 7 54.0613817396 137.554218846 99.7705
51 7 103.395 88.8208 100.425
8128 7 150.722614842 88.8208 100.425
16205 7 56.0673784437 88.8208 100.425
24282 7 103.395 136.148418981 100.425
32359 7 103.395 41.4931825819 100.425
40436 7 150.722614842 136.148418981 100.425
48513 7 150.722614842 41.4931825819 100.425
56590 7 56.0673784437 41.4931825819 100.425
64667 7 56.0673784437 136.148418981 100.425
52 9 114.86 82.4408 117.782
8129 9 162.18761881 82.4408 117.782
16206 9 67.532382411 82.4408 117.782
24283 9 114.86 129.768421727 117.782
32360 9 114.86 35.1131853285 117.782
40437 9 162.18761881 129.768421727 117.782
48514 9 162.18761881 35.1131853285 117.782
56591 9 67.532382411 35.1131853285 117.782
64668 9 67.532382411 129.768421727 117.782
53 1 115.545 78.8295 117.646
8130 1 162.872616368 78.8295 117.646
16207 1 68.2173799696 78.8295 117.646
24284 1 115.545 126.15711649 117.646
32361 1 115.545 31.5018800917 117.646
40438 1 162.872616368 126.15711649 117.646
48515 1 162.872616368 31.5018800917 117.646
56592 1 68.2173799696 31.5018800917 117.646
64669 1 68.2173799696 126.15711649 117.646
54 1 116.433 78.7868 116.522
8131 1 163.760616857 78.7868 116.522
16208 1 69.1053804579 78.7868 116.522
24285 1 116.433 126.114414769 116.522
32362 1 116.433 31.4591783705 116.522
40439 1 163.760616857 126.114414769 116.522
48516 1 163.760616857 31.4591783705 116.522
56593 1 69.1053804579 31.4591783705 116.522
64670 1 69.1053804579 126.114414769 116.522
55 1 116.979 79.9274 115.972
8132 1 164.306614476 79.9274 115.972
16209 1 69.6513780775 79.9274 115.972
24286 1 116.979 127.255016881 115.972
32363 1 116.979 32.5997804823 115.972
40440 1 164.306614476 127.255016881 115.972
48517 1 164.306614476 32.5997804823 115.972
56594 1 69.6513780775 32.5997804823 115.972
64671 1 69.6513780775 127.255016881 115.972
56 1 116.488 81.1649 116.45
8133 1 163.815617162 81.1649 116.45
16210 1 69.160380763 81.1649 116.45
24287 1 116.488 128.492519933 116.45
32364 1 116.488 33.837283534 116.45
40441 1 163.815617162 128.492519933 116.45
48518 1 163.815617162 33.837283534 116.45
56595 1 69.160380763 33.837283534 116.45
64672 1 69.160380763 128.492519933 116.45
57 1 115.463 81.2195 117.436
8134 1 162.790615636 81.2195 117.436
16211 1 68.1353792372 81.2195 117.436
24288 1 115.463 128.54711588 117.436
32365 1 115.463 33.8918794813 117.436
40442 1 162.790615636 128.54711588 117.436
48519 1 162.790615636 33.8918794813 117.436
56596 1 68.1353792372 33.8918794813 117.436
64673 1 68.1353792372 128.54711588 117.436
58 1 115.09 80.0083 118.133
8135 1 162.417614537 80.0083 118.133
16212 1 67.7623781385 80.0083 118.133
24289 1 115.09 127.335918981 118.133
32366 1 115.09 32.6806825819 118.133
40443 1 162.417614537 127.335918981 118.133
48520 1 162.417614537 32.6806825819 118.133
56597 1 67.7623781385 32.6806825819 118.133
64674 1 67.7623781385 127.335918981 118.133
59 8 115.324 77.4165 118.548
8136 8 162.651615697 77.4165 118.548
16213 8 67.9963792982 77.4165 118.548
24290 8 115.324 124.744114476 118.548
32367 8 115.324 30.0888780775 118.548
40444 8 162.651615697 124.744114476 118.548
48521 8 162.651615697 30.0888780775 118.548
56598 8 67.9963792982 30.0888780775 118.548
64675 8 67.9963792982 124.744114476 118.548
60 1 114.698 122.728 116.945
8137 1 162.025616246 122.728 116.945
16214 1 67.3703798475 122.728 116.945
24291 1 114.698 170.055615026 116.945
32368 1 114.698 75.4003786268 116.945
40445 1 162.025616246 170.055615026 116.945
48522 1 162.025616246 75.4003786268 116.945
56599 1 67.3703798475 75.4003786268 116.945
64676 1 67.3703798475 170.055615026 116.945
61 1 113.953 121.929 116.107
8138 1 161.280621129 121.929 116.107
16215 1 66.6253847303 121.929 116.107
24292 1 113.953 169.256619054 116.107
32369 1 113.953 74.6013826551 116.107
40446 1 161.280621129 169.256619054 116.107
48523 1 161.280621129 74.6013826551 116.107
56600 1 66.6253847303 74.6013826551 116.107
64677 1 66.6253847303 169.256619054 116.107
62 12 114.548 120.778 115.629
8139 12 161.87561472 120.778 115.629
16216 12 67.2203783216 120.778 115.629
24293 12 114.548 168.105618077 115.629
32370 12 114.548 73.4503816786 115.629
40447 12 161.87561472 168.105618077 115.629
48524 12 161.87561472 73.4503816786 115.629
56601 12 67.2203783216 73.4503816786 115.629
64678 12 67.2203783216 168.105618077 115.629
63 1 112.58 122.369 115.969
8140 1 159.90762003 122.369 115.969
16217 1 65.2523836317 122.369 115.969
24294 1 112.58 169.696621495 115.969
32371 1 112.58 75.0413850965 115.969
40448 1 159.90762003 169.696621495 115.969
48525 1 159.90762003 75.0413850965 115.969
56602 1 65.2523836317 75.0413850965 115.969
64679 1 65.2523836317 169.696621495 115.969
64 1 112.032 123.606 116.445
8141 1 159.35961588 123.606 116.445
16218 1 64.7043794813 123.606 116.445
24295 1 112.032 170.933621007 116.445
32372 1 112.032 76.2783846083 116.445
40449 1 159.35961588 170.933621007 116.445
48526 1 159.35961588 76.2783846083 116.445
56603 1 64.7043794813 76.2783846083 116.445
64680 1 64.7043794813 170.933621007 116.445
65 1 112.876 77.0654 117.204
8142 1 160.20361765 77.0654 117.204
16219 1 65.5483812513 77.0654 117.204
24296 1 112.876 124.393017369 117.204
32373 1 112.876 29.7377809706 117.204
40450 1 160.20361765 124.393017369 117.204
48527 1 160.20361765 29.7377809706 117.204
56604 1 65.5483812513 29.7377809706 117.204
64681 1 65.5483812513 124.393017369 117.204
66 1 114.198 76.5576 117.463
8143 1 161.525616246 76.5576 117.463
16220 1 66.8703798475 76.5576 117.463
24297 1 114.198 123.885220128 117.463
32374 1 114.198 29.2299837293 117.463
40451 1 161.525616246 123.885220128 117.463
48528 1 161.525616246 29.2299837293 117.463
56605 1 66.8703798475 29.2299837293 117.463
64682 1 66.8703798475 123.885220128 117.463
67 4 114.85 77.4676 120.06
8144 4 162.177616673 77.4676 120.06
16221 4 67.5223802748 77.4676 120.06
24298 4 114.85 124.795216161 120.06
32375 4 114.85 30.1399797621 120.06
40452 4 162.177616673 124.795216161 120.06
48529 4 162.177616673 30.1399797621 120.06
56606 4 67.5223802748 30.1399797621 120.06
64683 4 67.5223802748 124.795216161 120.06
68 4 116.723 76.6006 118.542
8145 4 164.050617772 76.6006 118.542
16222 4 69.3953813734 76.6006 118.542
24299 4 116.723 123.928219396 118.542
32376 4 116.723 29.2729829969 118.542
40453 4 164.050617772 123.928219396 118.542
48530 4 164.050617772 29.2729829969 118.542
56607 4 69.3953813734 29.2729829969 118.542
64684 4 69.3953813734 123.928219396 118.542
69 7 116.744 77.9111 116.141
8146 7 164.071621495 77.9111 116.141
16223 7 69.4163850965 77.9111 116.141
24300 7 116.744 125.238720494 116.141
32377 7 116.744 30.5834840956 116.141
40454 7 164.071621495 125.238720494 116.141
48531 7 164.071621495 30.5834840956 116.141
56608 7 69.4163850965 30.5834840956 116.141
64685 7 69.4163850965 125.238720494 116.141
70 7 117.697 79.8814 115.217
8147 7 165.024616796 79.8814 115.217
16224 7 70.3693803968 79.8814 115.217
24301 7 117.697 127.209019261 115.217
32378 7 117.697 32.5537828626 115.217
40455 7 165.024616796 127.209019261 115.217
48532 7 165.024616796 32.5537828626 115.217
56609 7 70.3693803968 32.5537828626 115.217
64686 7 70.3693803968 127.209019261 115.217
71 7 114.49 80.1913 118.89
8148 7 161.817616063 80.1913 118.89
16225 7 67.1623796644 80.1913 118.89
24302 7 114.49 127.518917638 118.89
32379 7 114.49 32.8636812391 118.89
40456 7 161.817616063 127.518917638 118.89
48533 7 161.817616063 32.8636812391 118.89
56610 7 67.1623796644 32.8636812391 118.89
64687 7 67.1623796644 127.518917638 118.89
72 7 115.599 122.434 117.147
8149 7 162.926617223 122.434 117.147
16226 7 68.2713808241 122.434 117.147
24303 7 115.599 169.761616307 117.147
32380 7 115.599 75.1063799085 117.147
40457 7 162.926617223 169.761616307 117.147
48534 7 162.926617223 75.1063799085 117.147
56611 7 68.2713808241 75.1063799085 117.147
64688 7 68.2713808241 169.761616307 117.147
73 7 111.153 76.6697 116.132
8150 7 158.480618077 76.6697 116.132
16227 7 63.8253816786 76.6697 116.132
24304 7 111.153 123.997318822 116.132
32381 7 111.153 29.3420824232 116.132
40458 7 158.480618077 123.997318822 116.132
48535 7 158.480618077 29.3420824232 116.132
56612 7 63.8253816786 29.3420824232 116.132
64689 7 63.8253816786 123.997318822 116.132
74 7 112.531 77.9728 117.596
8151 7 159.858616429 77.9728 117.596
16228 7 65.2033800306 77.9728 117.596
24305 7 112.531 125.300419408 117.596
32382 7 112.531 30.6451830091 117.596
40459 7 159.858616429 125.300419408 117.596
48536 7 159.858616429 30.6451830091 117.596
56613 7 65.2033800306 30.6451830091 117.596
64690 7 65.2033800306 125.300419408 117.596
75 7 116.913 82.0795 116.205
8152 7 164.240620214 82.0795 116.205
16229 7 69.5853838148 82.0795 116.205
24306 7 116.913 129.40711649 116.205
32383 7 116.913 34.7518800917 116.205
40460 7 164.240620214 129.40711649 116.205
48537 7 164.240620214 34.7518800917 116.205
56614 7 69.5853838148 34.7518800917 116.205
64691 7 69.5853838148 129.40711649 116.205
76 7 111.913 121.946 115.452
8153 7 159.240620214 121.946 115.452
16230 7 64.5853838148 121.946 115.452
24307 7 111.913 169.273617345 115.452
32384 7 111.913 74.6183809461 115.452
40461 7 159.240620214 169.273617345 115.452
48538 7 159.240620214 74.6183809461 115.452
56615 7 64.5853838148 74.6183809461 115.452
64692 7 64.5853838148 169.273617345 115.452
77 7 114.304 82.4622 118.55
8154 7 161.631619054 82.4622 118.55
16231 7 66.9763826551 82.4622 118.55
24308 7 114.304 129.789814549 118.55
32385 7 114.304 35.1345781507 118.55
40462 7 161.631619054 129.789814549 118.55
48539 7 161.631619054 35.1345781507 118.55
56616 7 66.9763826551 35.1345781507 118.55
64693 7 66.9763826551 129.789814549 118.55
78 12 120.319 95.5095 95.4671
8155 12 167.646618444 95.5095 95.4671
16232 12 72.9913820448 95.5095 95.4671
24309 12 120.319 142.837116796 95.4671
32386 12 120.319 48.1818803968 95.4671
40463 12 167.646618444 142.837116796 95.4671
48540 12 167.646618444 48.1818803968 95.4671
56617 12 72.9913820448 48.1818803968 95.4671
64694 12 72.9913820448 142.837116796 95.4671
79 1 117.011 96.7486 94.8281
8156 1 164.338619786 96.7486 94.8281
16233 1 69.6833833876 96.7486 94.8281
24310 1 117.011 144.076214391 94.8281
32387 1 117.011 49.420977992 94.8281
40464 1 164.338619786 144.076214391 94.8281
48541 1 164.338619786 49.420977992 94.8281
56618 1 69.6833833876 49.420977992 94.8281
64695 1 69.6833833876 144.076214391 94.8281
80 1 117.231 98.1187 94.4772
8157 1 164.558621007 98.1187 94.4772
16234 1 69.9033846083 98.1187 94.4772
24311 1 117.231 145.446316319 94.4772
32388 1 117.231 50.7910799208 94.4772
40465 1 164.558621007 145.446316319 94.4772
48542 1 164.558621007 50.7910799208 94.4772
56619 1 69.9033846083 50.7910799208 94.4772
64696 1 69.9033846083 145.446316319 94.4772
81 1 118.55 98.5769 94.3292
8158 1 165.877621251 98.5769 94.3292
16235 1 71.2223848524 98.5769 94.3292
24312 1 118.55 145.904514867 94.3292
32389 1 118.55 51.2492784681 94.3292
40466 1 165.877621251 145.904514867 94.3292
48543 1 165.877621251 51.2492784681 94.3292
56620 1 71.2223848524 51.2492784681 94.3292
64697 1 71.2223848524 145.904514867 94.3292
82 1 119.638 97.7515 94.66
8159 1 166.965618688 97.7515 94.66
16236 1 72.3103822889 97.7515 94.66
24313 1 119.638 145.07912119 94.66
32390 1 119.638 50.4238847914 94.66
40467 1 166.965618688 145.07912119 94.66
48544 1 166.965618688 50.4238847914 94.66
56621 1 72.3103822889 50.4238847914 94.66
64698 1 72.3103822889 145.07912119 94.66
83 1 119.38 96.4304 95.057
8160 1 166.707615453 96.4304 95.057