ITEM: TIMESTEP
2000000
ITEM: NUMBER OF ATOMS
21804
ITEM: BOX BOUNDS pp pp pp
1.6879853401935310e+02 2.3120146598064366e+02
1.6879853401935310e+02 2.3120146598064366e+02
1.6879853401935310e+02 2.3120146598064366e+02
ITEM: ATOMS id type x y z
1 12 181.049635136 170.332918143 207.043410722
2 1 181.790107833 230.6509321 210.054483079
3 1 183.023564661 231.146134481 210.307649233
4 1 183.734240682 169.627739765 209.516536565
5 1 183.113957261 170.055858029 208.334087636
6 1 181.725799043 169.706085713 208.10906806
7 1 181.134110607 231.097819143 208.970926383
8 8 180.985614685 229.626641497 211.128185885
9 1 179.888428508 230.789556576 213.335163181
10 1 178.830911896 169.020928887 214.04783654
11 12 179.001781691 169.57377475 215.276343636
12 1 177.65562811 169.201499521 213.342405233
13 1 177.397574647 168.843481597 212.006787385
14 1 178.493642685 230.751869375 211.306776194
15 1 179.736905689 230.446998343 211.943962763
16 4 181.990434493 229.529160368 212.326916827
17 4 180.754615554 228.191830672 210.452195447
18 7 183.518674889 230.827576878 211.150493918
19 7 184.659569097 169.82794594 209.819342822
20 7 180.177208921 230.8228876 208.749691918
21 7 180.853238558 230.57643903 213.654995368
22 7 176.371558047 168.830517295 211.569651951
23 7 178.212503053 230.522226488 210.364023572
24 7 183.641018746 170.631923845 207.732691263
25 7 176.831054752 169.573860214 213.754597135
26 0 0.0 0.0 0.0
27 0 0.0 0.0 0.0
28 0 0.0 0.0 0.0
29 0 0.0 0.0 0.0
30 12 213.225190673 181.037459977 223.954413958
31 1 212.364790828 184.330177385 222.334436653
32 1 213.093876566 184.184835227 221.142672215
33 1 213.867526189 183.054591217 220.870067122
34 1 213.81131884 182.080410815 221.792638181
35 1 213.183780643 182.149900627 223.052196022
36 1 212.477928732 183.36061221 223.326792754
37 8 211.40185057 185.849978304 222.538636067
38 1 212.992562681 187.355759039 224.082934392
39 1 214.055247657 188.262310552 224.401523306
40 12 214.690970477 188.336195262 225.668104508
41 1 214.454135432 189.142225496 223.403106132
42 1 213.833339858 189.146685096 222.144386707
43 1 213.064192796 188.047159652 221.777422601
44 1 212.532822467 187.207074866 222.742132518
45 4 210.242979597 185.670055234 223.659197405
46 4 210.762680934 186.180029613 221.09717824
47 7 213.031285119 184.981653417 220.511568228
48 7 214.40184401 182.984714059 219.98410276
49 7 212.161741205 183.50632612 224.183020577
50 7 212.667730199 186.65011485 224.737772657
51 7 214.118274331 189.788720298 221.362537901
52 7 212.715729427 188.031359804 220.817204603
53 7 214.288442652 181.187102806 221.552646505
54 7 215.183038809 189.753019634 223.751889561
55 0 0.0 0.0 0.0
56 0 0.0 0.0 0.0
57 0 0.0 0.0 0.0
58 0 0.0 0.0 0.0
59 9 194.991154681 185.457355879 216.982711978
60 1 195.434723579 189.06931373 217.486385336
61 1 194.168258168 189.539315954 217.362430606
62 1 193.10958513 188.676829675 217.271821925
63 1 193.324753757 187.315914345 217.128500891
64 1 194.66700957 186.780706006 217.17390219
65 1 195.705946687 187.670450261 217.437895893
66 8 196.705325078 189.954955201 217.974186373
67 1 196.148125811 189.890418753 220.715713935
68 1 196.626575672 189.697032404 222.082215563
69 12 195.975909572 190.162336211 223.221936371
70 1 197.80630138 188.938671006 222.212285799
71 1 198.513262629 188.521379611 221.101516381
72 1 198.202706069 188.860198648 219.840235317
73 1 197.006368429 189.490952853 219.589546233
74 4 196.230443815 191.430681705 217.752981142
75 4 197.940303997 189.58447279 217.014391179
76 7 193.983199305 190.544081885 217.465958384
77 7 192.126891693 188.931703164 217.541806854
78 7 196.61989208 187.213045284 217.6692279
79 7 195.267086667 190.393711172 220.446491426
80 7 199.404766321 188.163543798 221.358453704
81 7 198.825126329 188.571941777 219.1518309
82 7 192.475803926 186.821237438 217.184438401
83 7 198.203358234 188.714818301 223.104057529
84 0 0.0 0.0 0.0
85 7 195.886284532 185.273556136 216.615546782
86 0 0.0 0.0 0.0
87 0 0.0 0.0 0.0
88 12 210.647233812 204.86514182 186.264098973
89 1 209.884605197 203.42456098 189.569758948
90 1 210.981292893 202.528980568 189.676233575
91 1 212.072661253 202.670752902 188.747325949
92 1 211.969766945 203.567242296 187.642920124
93 1 210.851010562 204.278078315 187.491544144
94 1 209.845966682 204.356969451 188.46593183
95 8 208.685648008 203.589501133 190.806413879
96 1 208.68665671 205.584340552 192.425272057
97 1 209.120371042 206.371791643 193.545245528
98 12 208.939095938 207.745358875 193.494282428
99 1 209.705002657 205.586885633 194.664341116
100 1 209.865731598 204.275010088 194.614527216
101 1 209.712296294 203.549938324 193.419412256
102 1 209.08020516 204.304675404 192.324044324
103 4 208.417536656 202.050344923 191.070544956
104 4 207.329523904 204.171177196 190.178106602
105 7 211.093978331 201.983924711 190.506472283
106 7 212.942358191 202.13882297 188.786766204
107 7 208.973067477 204.839451757 188.35497842
108 7 208.150556759 205.989016612 191.707421429
109 7 210.09930679 203.69930036 195.408035155
110 7 209.933483394 202.548904829 193.32561019
111 7 212.778946409 203.689508533 186.965088184
112 7 209.72693772 206.052338539 195.580247925
113 0 0.0 0.0 0.0
114 0 0.0 0.0 0.0
115 0 0.0 0.0 0.0
116 0 0.0 0.0 0.0
117 12 190.242837049 222.60111523 212.767626187
118 1 186.509402541 222.692707608 212.354728016
119 1 186.202438131 223.539831317 213.499178839
120 1 187.172743304 224.039514346 214.336169415
121 1 188.491599511 223.609399091 214.18130204
122 1 188.941006992 222.825178773 213.12640015
123 1 187.888708404 222.32590269 212.289811396
124 8 185.41848343 222.36443486 210.947955809
125 1 184.73620708 224.894155724 210.076451455
126 1 183.81293141 225.911625955 209.714488692
127 12 184.234125484 227.298044221 209.444621033
128 1 182.459058589 225.43553928 209.679436803
129 1 181.979273849 224.234355584 210.144313452
130 1 183.032960518 223.302297644 210.496656338
131 1 184.299784925 223.632855333 210.490845289
132 4 184.854468929 220.937812055 211.265606534
133 4 186.510120582 222.052731438 209.84928703
134 7 185.254573858 223.788381733 213.746054863
135 7 186.796773038 224.520055252 215.136403267
136 7 187.983421905 221.752223122 211.472931431
137 7 185.673584707 225.12215169 210.099319782
138 7 181.043770418 223.988353522 210.29685403
139 7 182.634783841 222.358642773 210.74774832
140 7 189.113020521 223.940617728 214.918930312
141 7 181.688839256 226.075060998 209.2683012
142 0 0.0 0.0 0.0
143 0 0.0 0.0 0.0
144 0 0.0 0.0 0.0
145 0 0.0 0.0 0.0
146 12 187.184794571 172.502721875 218.838746375
147 1 186.122468107 171.719998077 215.412562353
148 1 185.252689032 172.763715936 215.049858245
149 1 185.006251255 173.764840467 215.947039258
150 1 185.778643661 173.768926831 217.194615534
151 1 186.524908985 172.592524314 217.63719013
152 1 186.584840812 171.549325358 216.694034274
153 8 186.599703952 170.649071083 214.176732915
154 1 186.717711708 230.459191183 215.229327906
155 1 186.089298795 229.291564472 215.700659485
156 12 186.770973965 228.435093846 216.537800665
157 1 184.6968196 229.198677674 215.267651559
158 1 183.985909682 230.209536937 214.602851106
159 1 184.63633299 168.881661863 214.271037615
160 1 185.992338998 169.040562331 214.617651482
161 4 188.133709275 170.519754479 214.010085657
162 4 185.899046115 170.982688346 212.735846101
163 7 184.959459075 172.779467918 214.116536664
164 7 184.605629394 174.668989695 215.600254592
165 7 187.06701928 170.636377009 216.828598314
166 7 187.774219612 230.674922488 215.433640707
167 7 182.99272589 230.265591366 214.354385864
168 7 184.266882553 169.701610758 213.755591362
169 7 185.816071434 174.592256722 217.673156764
170 7 184.310625378 228.295641772 215.317264128
171 0 0.0 0.0 0.0
172 0 0.0 0.0 0.0
173 0 0.0 0.0 0.0
174 0 0.0 0.0 0.0
175 12 178.511745636 185.516821678 176.027981402
176 1 178.902024724 187.177194135 179.504399897
177 1 178.252552018 186.194682824 180.272751251
178 1 177.582967238 185.131527419 179.693017867
179 1 177.710628915 184.959259645 178.307098043
180 1 178.507319563 185.825349523 177.46455769
181 1 179.140712598 186.828141071 178.162749526
182 8 179.517322088 188.681405927 180.223370246
183 1 177.57877674 190.232359773 179.258110986
184 1 176.68339041 191.247073566 179.405960441
185 9 176.059839374 191.854537487 178.315270954
186 1 176.394032265 191.835192837 180.671749025
187 1 176.852948974 191.187320513 181.772116428
188 1 177.766584945 190.10694413 181.619952323
189 1 178.238859002 189.706464163 180.437211515
190 4 180.749564801 189.310497232 179.502197559
191 4 180.163202219 188.258453122 181.634647617
192 7 178.116575655 186.298247154 181.329032029
193 7 177.068733723 184.441289657 180.207345449
194 7 179.739891177 187.448137951 177.555635346
195 7 177.752565328 189.920613205 178.306709979
196 7 176.49863654 191.488504351 182.628833646
197 7 178.095246255 189.650522907 182.518535508
198 7 177.256128214 184.179556548 177.961262348
199 7 175.91909187 192.732681438 180.84483077
200 0 0.0 0.0 0.0
201 0 0.0 0.0 0.0
202 0 0.0 0.0 0.0
203 7 175.550732807 192.73279357 178.42825109
204 12 177.041812922 180.928655275 214.328488411
205 1 173.701806353 182.096376535 215.467805568
206 1 173.304993804 180.970626646 216.240395762
207 1 174.290312514 179.982883592 216.567252943
208 1 175.521804645 180.010197616 215.934608676
209 1 175.729359235 180.947239605 214.905695519
210 1 174.842057646 181.937394416 214.627547655
211 8 172.66186943 183.500715711 215.157279192
212 1 170.569808745 185.076173285 215.614738337
213 1 169.624282066 185.85104444 216.451747459
214 12 230.786809892 186.263134052 215.952589695
215 1 169.917208853 186.007527464 217.819916804
216 1 171.18235608 185.477265533 218.285578198
217 1 172.034274884 184.626253452 217.580444183
218 1 171.678003212 184.426407333 216.237764279
219 4 171.841590091 183.382287373 213.794463424
220 4 173.754122095 184.558874653 214.669362046
221 7 172.29333551 180.856391865 216.410391253
222 7 174.109523973 179.329726136 217.353904387
223 7 174.870155696 182.653963197 213.925763591
224 7 170.438827925 184.758660634 214.675171769
225 7 171.536825763 185.713574903 219.223803665
226 7 172.91853525 184.091258505 217.926148144
227 7 176.349595564 179.447367623 216.160631777
228 7 169.28946935 186.525690379 218.476703694
229 0 0.0 0.0 0.0
230 0 0.0 0.0 0.0
231 0 0.0 0.0 0.0
232 0 0.0 0.0 0.0
233 12 226.197002301 185.244546149 197.38753165
234 1 225.720329406 183.169732665 200.383703082
235 1 227.022874475 183.202132806 200.921549451
236 1 228.000207836 184.085495392 200.288107659
237 1 227.754455002 184.834797661 199.269693925
238 1 226.471003167 184.72911733 198.627999052
239 1 225.456635187 183.973400518 199.272727912
240 8 224.462763675 182.145655421 200.959710103
241 1 224.486307759 179.436305733 200.144184248
242 1 224.892262327 178.134106881 200.276871874
243 12 224.533524617 177.103883916 199.393967565
244 1 225.54182975 177.79513473 201.48260124
245 1 225.882832821 178.701352294 202.40915035
246 1 225.52970807 180.081304379 202.245420238
247 1 224.785200513 180.418558825 201.091831627
248 4 223.036994089 182.282213287 200.125775942
249 4 223.786180781 182.549135627 202.307614322
250 7 227.301629749 182.655872572 201.796442091
251 7 229.021240389 184.084090235 200.649603903
252 7 224.622304521 183.90636449 198.649503886
253 7 223.856788143 179.685298644 199.384217621
254 7 226.456777773 178.373219987 203.175923401
255 7 225.811484989 180.809167075 202.944237801
256 7 228.537265819 185.472903462 199.079280856
257 7 225.671476392 176.885482199 201.788644126
258 0 0.0 0.0 0.0
259 0 0.0 0.0 0.0
260 0 0.0 0.0 0.0
261 0 0.0 0.0 0.0
262 12 200.839919043 193.661578908 203.558059075
263 1 198.874902126 190.981196176 201.644806714
264 1 197.685270068 190.931288853 202.431258653
265 1 197.566151011 191.742373135 203.547039449
266 1 198.634653944 192.590622142 203.877555065
267 1 199.822944739 192.723758648 203.144616369
268 1 199.910311422 191.872405061 202.044057049
269 8 199.227997133 190.029226223 200.183145116
270 1 197.731881348 187.749377794 201.180264662
271 1 197.695309802 186.369327179 201.524396527
272 12 196.932391409 185.86001217 202.587776525
273 1 198.5986651 185.515558469 200.838864111
274 1 199.605401472 186.037445494 199.977950034
275 1 199.623461083 187.384927705 199.838250164
276 1 198.740601251 188.340321058 200.379164163
277 4 200.820448151 189.955931035 199.811799869
278 4 198.435261855 190.496642611 198.954209894
279 7 196.895927272 190.246100192 202.176928618
280 7 196.8054512 191.66678735 204.127810606
281 7 200.651119171 191.845154072 201.389111574
282 7 197.114823999 188.393642105 201.557831512
283 7 200.193711336 185.48903976 199.438218398
284 7 200.410063552 187.755911953 199.264783409
285 7 198.633294835 193.006533221 204.793776201
286 7 198.687414823 184.458172016 201.017213958
287 0 0.0 0.0 0.0
288 0 0.0 0.0 0.0
289 0 0.0 0.0 0.0
290 0 0.0 0.0 0.0
291 12 196.365697308 203.734308943 220.016090767
292 1 198.260027752 205.620061717 217.28046793
293 1 197.253809315 205.830675792 216.316097932
294 1 195.989439596 205.333023383 216.564413466
295 1 195.616326353 204.707470616 217.762820004
296 1 196.593275208 204.4542824 218.781398025
297 1 197.865741877 205.029613582 218.557366971
298 8 199.942251866 206.064195548 216.997800617
299 1 201.624559774 204.013377292 217.434179019
300 1 202.344440296 202.792031017 217.095691167
301 12 202.851536918 201.984670443 218.171333396
302 1 202.30439453 202.464404881 215.724057325
303 1 201.540360161 203.103736845 214.702182699
304 1 200.864471674 204.258386712 215.137551488
305 1 200.913002498 204.657990131 216.481333229
306 4 200.437751537 206.584732985 218.410998145
307 4 199.952238201 207.342419437 216.13042364
308 7 197.394000842 206.344801897 215.469229922
309 7 195.232800272 205.538605309 215.855087127
310 7 198.641761209 205.056734707 219.32636688
311 7 201.641417131 204.385930957 218.372746894
312 7 201.596765265 202.763182568 213.624625966
313 7 200.468379142 205.054317189 214.545317968
314 7 194.641915255 204.318513283 217.977432864
315 7 202.780926582 201.634061403 215.466913958
316 0 0.0 0.0 0.0
317 0 0.0 0.0 0.0
318 0 0.0 0.0 0.0
319 0 0.0 0.0 0.0
320 12 209.702661245 204.864771472 217.827847781
321 1 209.62300643 201.269396435 218.85472768
322 1 209.59422289 200.644866231 217.637372068
323 1 209.717648097 201.341558076 216.426549818
324 1 209.758942173 202.750083472 216.502410883
325 1 209.74982074 203.473510417 217.758351233
326 1 209.731383681 202.651294842 218.889277735
327 8 209.827391515 200.537244842 220.357862516
328 1 208.238470363 198.469883468 220.212804962
329 1 207.159682346 197.676981933 220.74907571
330 12 207.048212863 196.369416083 220.283471418
331 1 206.23419369 198.181951056 221.677968444
332 1 206.423472238 199.458885375 222.192965038
333 1 207.432631511 200.228434838 221.685192268
334 1 208.388507828 199.716156051 220.782366357
335 4 210.512973922 201.57979367 221.40207905
336 4 210.801486247 199.387327966 220.128918924
337 7 209.47628639 199.520638742 217.714734892
338 7 209.679419353 200.830985106 215.603932384
339 7 209.592341618 203.163497556 219.769326076
340 7 208.852419813 198.11789455 219.512270411
341 7 205.839018104 199.951390725 222.910463042
342 7 207.467068324 201.158843387 221.984796
343 7 209.934557482 203.228524565 215.690408425
344 7 205.493409705 197.599364811 222.016354837
345 0 0.0 0.0 0.0
346 0 0.0 0.0 0.0
347 0 0.0 0.0 0.0
348 0 0.0 0.0 0.0
349 12 195.234888196 177.237212772 208.333267363
350 1 195.757571471 178.058648244 211.923628501
351 1 195.535127885 179.461257591 211.883233405
352 1 195.07073653 180.039660751 210.731063029
353 1 195.03351499 179.401902461 209.526142946
354 1 195.2422714 177.959909791 209.536798098
355 1 195.612517241 177.264389755 210.722970404
356 8 196.48135915 177.305787501 213.376094484
357 1 194.032095484 176.904698913 214.561962821
358 1 193.24819046 176.021750023 215.333051676
359 12 191.950293319 176.508467941 215.640555654
360 1 193.656809802 174.721876974 215.758911682
361 1 194.976901063 174.321907063 215.489638365
362 1 195.820435397 175.119185428 214.678966152
363 1 195.346598326 176.365527337 214.257584233
364 4 197.557203357 178.179360464 214.170313355
365 4 197.486858493 176.34995785 212.560139316
366 7 195.750506493 180.116316749 212.675593195
367 7 194.806930154 181.105935159 210.634372194
368 7 195.786847418 176.265178566 210.763400344
369 7 193.717682455 177.812819322 214.346399537
370 7 195.335310147 173.413527391 215.78599714
371 7 196.741041214 174.967371135 214.353419984
372 7 195.014566714 179.897076291 208.650393765
373 7 193.106450012 173.953731262 216.146272145
374 0 0.0 0.0 0.0
375 0 0.0 0.0 0.0
376 0 0.0 0.0 0.0
377 0 0.0 0.0 0.0
378 12 223.751250461 207.400013379 222.2797886
379 1 221.39768357 208.378304769 225.032319132
380 1 221.916805863 209.595483058 225.404365308
381 1 223.194825314 209.963449291 224.941390326
382 1 223.860591902 209.134461558 223.963595342
383 1 223.238271484 208.006238491 223.426386317
384 1 222.106440875 207.596520594 224.091696911
385 8 220.148655118 207.597330879 225.956115908
386 1 219.331007144 205.427116158 224.503631296
387 1 219.254819368 204.048988157 224.191602693
388 12 218.73074844 203.500429611 223.104157576
389 1 219.927381775 203.15546003 225.097488949
390 1 220.603015445 203.68779606 226.245369551
391 1 220.632909025 205.052444146 226.548656814
392 1 219.98931257 205.928820887 225.614280935
393 4 218.781187375 208.272179928 225.507352855
394 4 220.454588787 207.761266451 227.54306055
395 7 221.417764718 210.206206223 226.03706878
396 7 223.729979542 210.70156733 225.332823303
397 7 221.779448577 206.720692013 223.862327544
398 7 218.98414245 206.151630066 223.879553702
399 7 221.10164359 203.149957749 226.861707189
400 7 221.110774413 205.40860944 227.353025573
401 7 224.713288704 209.440615026 223.636804602
402 7 219.930063869 202.133553105 224.994559058
403 0 0.0 0.0 0.0
404 0 0.0 0.0 0.0
405 0 0.0 0.0 0.0
406 0 0.0 0.0 0.0
407 9 175.730729995 179.673907288 183.282150434
408 1 174.102744395 180.457119321 180.026285762
409 1 172.778407072 179.994457366 180.330246154
410 1 172.363555316 179.424515066 181.536456788
411 1 173.3266483 179.274805161 182.548504762
412 1 174.674613877 179.734970962 182.351142002
413 1 175.010645547 180.369963798 181.129276394
414 8 174.639953308 181.181035188 178.561461938
415 1 174.082239582 179.154445597 176.939367317
416 1 174.325093712 178.031387556 176.113697011
417 12 173.438330845 177.174858412 175.673848688
418 1 175.697621136 177.883207455 175.767183052
419 1 176.75950263 178.798063614 176.235005684
420 1 176.434098823 179.884038374 177.03460136
421 1 175.07158715 180.020800651 177.402893488
422 4 176.024126793 182.070293133 178.572446535
423 4 173.540432765 182.063033796 177.740397012
424 7 172.109633784 180.195863709 179.56971247
425 7 171.457286198 179.109461117 181.56401825
426 7 175.930898254 180.664823452 180.930664794
427 7 173.041331826 179.382898196 177.137888817
428 7 177.744274744 178.634290931 176.179491668
429 7 177.160971785 180.458280518 177.43303445
430 7 172.961814365 178.817278254 183.405661255
431 7 175.944772697 177.096472105 175.250746678
432 0 0.0 0.0 0.0
433 7 176.548461422 179.862509892 182.851864439
434 0 0.0 0.0 0.0
435 0 0.0 0.0 0.0
436 12 193.156338059 229.989898631 204.575288659
437 1 193.866319425 169.379713021 207.733422464
438 1 192.645932849 169.527679612 208.385378482
439 1 191.58593745 168.876973585 207.753330045
440 1 191.668041917 230.609828411 206.500974852
441 1 192.95924117 230.606032571 205.812163732
442 1 194.019530732 168.809617764 206.483874339
443 8 195.307195286 169.949379682 208.538483907
444 1 197.452511718 170.144789638 206.828950234
445 1 198.232914594 170.707968396 205.809180346
446 12 199.389608667 170.041520886 205.405885317
447 1 198.040994164 172.050278695 205.477626039
448 1 197.006404739 172.784393488 206.159833908
449 1 196.172047468 172.190333681 207.160679041
450 1 196.402827153 170.861952847 207.406510415
451 4 196.166925722 231.071207284 209.01152359
452 4 194.936885129 170.96714102 209.673317879
453 7 192.59872664 170.038259615 209.279165675
454 7 190.656920379 168.882667729 208.170206856
455 7 194.89162773 168.830439023 206.004070309
456 7 197.581249641 169.227656783 207.118651399
457 7 196.910326965 173.777132309 205.921229202
458 7 195.464474551 172.843661295 207.682168398
459 7 190.906972519 230.127085754 205.984501385
460 7 198.512414521 172.512691972 204.653300773
461 0 0.0 0.0 0.0
462 0 0.0 0.0 0.0
463 0 0.0 0.0 0.0
464 0 0.0 0.0 0.0
465 12 188.663726418 215.575456815 226.225719018
466 1 191.584616839 217.295084763 224.579339149
467 1 192.613258888 216.718178748 225.233532941
468 1 192.350161542 215.981442381 226.382381976
469 1 191.068964833 215.534337896 226.635184286
470 1 189.939823609 216.074726592 225.927727932
471 1 190.20989896 217.042088739 224.875930727
472 8 192.040427309 218.285756551 223.193045297
473 1 191.548527153 216.295805655 221.331256395
474 1 191.923607096 215.250704176 220.492449856
475 12 191.107440807 214.279658995 219.970179299
476 1 193.103985639 215.436757072 219.851387879
477 1 193.952661602 216.558197868 219.999558443
478 1 193.678207051 217.447744045 221.013421656
479 1 192.41032145 217.360308424 221.735680671
480 4 193.411461972 219.167617386 223.21454955
481 4 190.824428449 219.178748851 222.801085623
482 7 193.498226804 216.983994373 224.92401601
483 7 193.137879561 215.634755524 226.895256824
484 7 189.48289704 217.492950724 224.326433637
485 7 190.667339324 216.2743503 221.805660764
486 7 194.742450228 216.607107017 219.395878753
487 7 194.423616051 218.086964331 221.270029853
488 7 191.040586416 214.947927405 227.496040264
489 7 193.295234857 214.800915723 219.087661328
490 0 0.0 0.0 0.0
491 0 0.0 0.0 0.0
492 0 0.0 0.0 0.0
493 0 0.0 0.0 0.0
494 12 203.975107175 205.816035516 189.315184546
495 1 202.682409201 208.001253187 192.096971971
496 1 201.511586855 207.339730482 192.499111013
497 1 201.223202918 206.139568812 191.824584833
498 1 201.983293962 205.499742132 190.844320779
499 1 203.137443507 206.226893871 190.328589076
500 1 203.47930287 207.448052802 191.07462081
501 8 203.209753838 209.388778412 193.054884633
502 1 200.912060439 210.516345352 193.98787762
503 1 199.77675398 210.75584237 194.827913345
504 12 198.559056846 211.103017257 194.347163194
505 1 200.159092036 210.717635312 196.180947288
506 1 201.445492436 210.297392669 196.653961296
507 1 202.371784743 209.851414677 195.733810553
508 1 202.105455127 209.960553499 194.377210768
509 4 203.230098607 210.476765088 191.917873024
510 4 204.736128967 209.544900132 193.474864069
511 7 200.842424535 207.698013772 193.177138888
512 7 200.28592737 205.714064815 192.069358105
513 7 204.316609984 207.901232246 190.841403737
514 7 200.794669856 210.775399556 193.006184877
515 7 201.679904343 210.487683434 197.7072469
516 7 203.230279148 209.421074834 195.935815553
517 7 201.818690246 204.590432562 190.381303834
518 7 199.417069438 211.021803328 196.848218992
519 0 0.0 0.0 0.0
520 0 0.0 0.0 0.0
521 0 0.0 0.0 0.0
522 0 0.0 0.0 0.0
523 12 185.172401793 186.684343532 201.308720414
524 1 186.190528446 184.150926896 198.975810932
525 1 184.879694841 183.835034854 198.472961956
526 1 183.707206996 184.595507522 198.822492613
527 1 183.889159657 185.664361336 199.646852881
528 1 185.174531822 185.915950182 200.187665035
529 1 186.344404988 185.152017657 199.870579954
530 8 187.693233732 183.256421702 198.691255983
531 1 188.105838807 180.708535569 199.322176097
532 1 188.006576994 179.335256346 199.125720447
533 12 188.499234702 178.355067706 200.084283378
534 1 187.467205498 178.875832992 197.890398077
535 1 186.918008025 179.697295989 196.896780799
536 1 187.011510569 181.069985775 197.120326435
537 1 187.487117681 181.558571392 198.407996153
538 4 188.596135157 183.258606553 199.996862081
539 4 188.449302296 183.898964222 197.45942303
540 7 184.920462584 182.990628984 197.801108924
541 7 182.907082028 184.432939558 198.23675609
542 7 187.226364245 185.401361589 200.346712461
543 7 188.533650956 181.038533224 200.165901137
544 7 186.606868857 179.386936143 195.947473743
545 7 186.829133421 181.729865131 196.37171391
546 7 183.142286821 186.266544201 199.895115774
547 7 187.593482681 177.781183929 197.654625059
548 0 0.0 0.0 0.0
549 0 0.0 0.0 0.0
550 0 0.0 0.0 0.0
551 0 0.0 0.0 0.0
552 12 223.189811492 184.233376941 177.647362264
553 1 222.045692413 187.231661368 175.705202948
554 1 221.173106259 187.84286619 176.577581729
555 1 221.017805555 187.339412669 177.874778484
556 1 221.8160159 186.274395782 178.345050318
557 1 222.464852345 185.438035238 177.371040953
558 1 222.633892566 186.002564567 176.112248945
559 8 222.320756214 188.060053174 174.253056621
560 1 220.332789344 189.75596277 173.337784155
561 1 219.052344424 190.057398905 172.938668926
562 12 218.598849093 191.39247379 172.929799157
563 1 218.201318327 189.023512306 172.714020685
564 1 218.618687946 187.705477555 173.021713427
565 1 219.997187501 187.429218997 173.398275947
566 1 220.852544159 188.495458111 173.527063759
567 4 223.25765008 187.082972847 173.437654452
568 4 223.107289122 189.42836658 174.432708446
569 7 220.615588246 188.708838539 176.44040187
570 7 220.366143904 187.822118694 178.454994082
571 7 223.060511321 185.46134986 175.375938463
572 7 220.942794291 190.623039702 173.42045124
573 7 217.997605716 186.99252979 172.967346391
574 7 220.259915704 186.414596615 173.753145664
575 7 221.591270614 185.908639991 179.206621081
576 7 217.123274587 189.131279296 172.407988387
577 0 0.0 0.0 0.0
578 0 0.0 0.0 0.0
579 0 0.0 0.0 0.0
580 0 0.0 0.0 0.0
581 12 198.6432799 182.559030998 191.117041463
582 1 195.619541999 180.993018786 192.944571256
583 1 194.805875504 180.842138755 191.856776859
584 1 195.291905404 181.182261244 190.593787899
585 1 196.516256487 181.658185455 190.303501674
586 1 197.406388047 181.992870642 191.391222271
587 1 196.818581196 181.628046612 192.703599551
588 8 195.177769042 180.402680035 194.512322703
589 1 193.548517071 182.5426854 194.884381513
590 1 192.411086471 183.292887825 195.279390235
591 12 192.343881956 184.645087738 195.103851097
592 1 191.514130397 182.475919868 196.078184819
593 1 191.648262033 181.034791336 196.343387382
594 1 192.814851342 180.413950092 195.866235726
595 1 193.79263688 181.150319945 195.137499292
596 4 196.480373394 180.599707782 195.466127855
597 4 194.812290103 178.927428055 194.260119282
598 7 193.909842338 180.466738375 192.003626836
599 7 194.568925253 181.186951919 189.849844495
600 7 197.428329154 181.734248831 193.507400237
601 7 194.188738522 183.046104926 194.446031325
602 7 190.879536396 180.450052451 196.826768091
603 7 193.030753797 179.375185001 196.038877802
604 7 196.852272825 181.769795922 189.315903149
605 7 190.590373015 182.990362021 196.226594215
606 0 0.0 0.0 0.0
607 0 0.0 0.0 0.0
608 0 0.0 0.0 0.0
609 0 0.0 0.0 0.0
610 12 187.101742983 208.817047527 222.870063563
611 1 184.627709329 210.623107041 220.636442862
612 1 185.514183849 211.60726016 220.187560169
613 1 186.849875227 211.557758588 220.314704312
614 1 187.454294226 210.613377584 221.221823069
615 1 186.667435304 209.674127171 221.887335694
616 1 185.269441995 209.665497751 221.518063967
617 8 182.977090964 210.624323416 220.086194485
618 1 181.137125904 212.670824049 220.277121857
619 1 180.62466021 213.84003257 220.864535194
620 12 179.90669008 214.796386374 220.148959021
621 1 180.909126429 214.032095172 222.194626368
622 1 181.702401726 213.109952453 222.93988421
623 1 182.351975965 212.094205992 222.303207788
624 1 182.078231518 211.824296343 220.94554458
625 4 182.201682031 209.217740122 220.357856939
626 4 182.978340233 210.877177757 218.522818954
627 7 185.306036926 212.332457888 219.603193207
628 7 187.387336651 212.205428258 219.700858993
629 7 184.690113173 208.883804031 221.90091462
630 7 180.802153845 212.356114159 219.377585526
631 7 181.63802382 213.001174071 223.973723648
632 7 182.994644663 211.389775705 222.671451922
633 7 188.491771173 210.72285127 221.328259225
634 7 180.522613905 214.736505042 222.760154477
635 0 0.0 0.0 0.0
636 0 0.0 0.0 0.0
637 0 0.0 0.0 0.0
638 0 0.0 0.0 0.0
639 12 196.434627252 223.65801454 178.864723467
640 1 194.359086794 226.147667037 176.948552994
641 1 195.204957894 227.298753909 177.115047104
642 1 196.386720897 227.251907999 177.928659748
643 1 196.700332787 226.074189649 178.550282581
644 1 196.009997592 224.880347231 178.299452469
645 1 194.779521454 224.989675146 177.56530381
646 8 192.94806801 226.297445874 176.055193287
647 1 191.024276981 226.774792035 178.00927754
648 1 189.912617432 226.410677375 178.755675583
649 12 189.514951436 227.114191398 179.932876627
650 1 189.13267726 225.296066682 178.320479393
651 1 189.676177729 224.402753646 177.395763278
652 1 190.829790183 224.758123951 176.733043208
653 1 191.51907005 225.909586781 176.990343905
654 4 193.085404404 225.368374103 174.806731674
655 4 192.562273161 227.763627875 175.708604555
656 7 194.811044374 228.280212907 176.823180261
657 7 196.926436104 228.051053714 178.045682132
658 7 194.240920288 224.207277159 177.404388276
659 7 191.469305683 227.72157605 178.188050534
660 7 189.077983115 223.566638086 177.239679119
661 7 191.224912553 224.235891091 175.96440509
662 7 197.536572406 226.042970193 179.046352695
663 7 188.112801385 225.121762258 178.532786931
664 0 0.0 0.0 0.0
665 0 0.0 0.0 0.0
666 0 0.0 0.0 0.0