ITEM: TIMESTEP
0
ITEM: NUMBER OF ATOMS
20836
ITEM: BOX BOUNDS pp pp pp
1.6725749223342723e+02 2.3274250776656953e+02
1.6725749223342723e+02 2.3274250776656953e+02
1.6725749223342723e+02 2.3274250776656953e+02
ITEM: ATOMS id type x y z 
1 12 1.7708089405358913e+02 1.7163775800282338e+02 2.0690963080079166e+02
2 1 1.7891276950854754e+02 1.6868045843106847e+02 2.0827737636290948e+02
3 1 1.8023880997271090e+02 1.6892700181053476e+02 2.0808881279226685e+02
4 1 1.8048535967171992e+02 1.7023901586991562e+02 2.0754763522589136e+02
5 1 1.7951308538672697e+02 1.7109528871054147e+02 2.0714331344931679e+02
6 1 1.7806023135384388e+02 1.7084155330911710e+02 2.0734599988135892e+02
7 1 1.7788512647786740e+02 1.6956724362001873e+02 2.0796806124130785e+02
8 8 1.7859641576390894e+02 2.3266368891682663e+02 2.0907590708768805e+02
9 1 1.7913841106259628e+02 1.6762600676121494e+02 2.1162835253845199e+02
10 1 1.7884670112342778e+02 1.6785567868915228e+02 2.1297835187712599e+02
11 12 1.7975606204757202e+02 1.6782946320045573e+02 2.1408622469927312e+02
12 1 1.7750777567651437e+02 1.6836149109636867e+02 2.1327065278290905e+02
13 1 1.7649316413923245e+02 1.6837062899683824e+02 2.1226823062905106e+02
14 1 1.7683794030352354e+02 1.6799199725794392e+02 2.1100505240643412e+02
15 1 1.7816189802694143e+02 1.6760433432186329e+02 2.1071286136923848e+02
16 4 1.7992554193208420e+02 2.3175847075781846e+02 2.0907712809117058e+02
17 4 1.7734174367741571e+02 2.3192416871946014e+02 2.0847436486526752e+02
18 7 1.8098672035180925e+02 1.6827920423908972e+02 2.0843125334928371e+02
19 7 1.8144580081746946e+02 1.7058239076320402e+02 2.0750939058492742e+02
20 7 1.7693767674377261e+02 1.6914747802210024e+02 2.0814554243295157e+02
21 7 1.8010478550787511e+02 1.6745529761638440e+02 2.1132770547943127e+02
22 7 1.7557169672150181e+02 1.6871519698012168e+02 2.1242610519973272e+02
23 7 1.7626846244696688e+02 1.6819709540659326e+02 2.1018933765693461e+02
24 7 1.7980576850870224e+02 1.7195480208109026e+02 2.0671905628977933e+02
25 7 1.7725177401641045e+02 1.6864445240892843e+02 2.1429706463216525e+02
30 12 2.1447803124062594e+02 1.8354662258916738e+02 2.2942172529896021e+02
31 1 2.1358324520622563e+02 1.8518836822910490e+02 2.2625673058141032e+02
32 1 2.1448113137067347e+02 1.8453960605125800e+02 2.2542419484922704e+02
33 1 2.1537446219062900e+02 1.8356172292030081e+02 2.2580333153877086e+02
34 1 2.1523024897914644e+02 1.8322130919862363e+02 2.2714266813471471e+02
35 1 2.1436411187113322e+02 1.8377112291314228e+02 2.2802951267551202e+02
36 1 2.1343150204685460e+02 1.8472087350561202e+02 2.2758013521156153e+02
37 8 2.1237326318972922e+02 1.8634631375739050e+02 2.2575182003136300e+02
38 1 2.1394757716836622e+02 1.8846062770773966e+02 2.2587918754837492e+02
39 1 2.1447012595847107e+02 1.8965345580462073e+02 2.2628437859410479e+02
40 12 2.1567689486772593e+02 1.9009159435042866e+02 2.2588799757274396e+02
41 1 2.1367611603039515e+02 1.9027803321882192e+02 2.2734295916603989e+02
42 1 2.1256151859768997e+02 1.8964918535098360e+02 2.2790266311624595e+02
43 1 2.1208809443087830e+02 1.8839805088797675e+02 2.2744880186311588e+02
44 1 2.1287451663567214e+02 1.8784006988718733e+02 2.2649266644971451e+02
45 4 2.1085756314612615e+02 1.8604828318351846e+02 2.2607198624222423e+02
46 4 2.1238502652156981e+02 1.8677714663755975e+02 2.2422317915617290e+02
47 7 2.1452052036048786e+02 1.8480146804532177e+02 2.2440884760443879e+02
48 7 2.1619684867913213e+02 1.8324601655723063e+02 2.2528716714350128e+02
49 7 2.1262930035426891e+02 1.8502357664085446e+02 2.2814942606827358e+02
50 7 2.1428417943841515e+02 1.8801666963924316e+02 2.2505323178967976e+02
51 7 2.1198400819227368e+02 1.9008177124551739e+02 2.2854926674176087e+02
52 7 2.1123774984368822e+02 1.8803016127031592e+02 2.2776857758455492e+02
53 7 2.1579991251344458e+02 1.8248024244340843e+02 2.2750580814994834e+02
54 7 2.1390126538576200e+02 1.9122414730704583e+02 2.2762992331376122e+02
59 9 1.9607165940240475e+02 1.8573121020366776e+02 2.2079326230747358e+02
60 1 1.9489829911534036e+02 1.8857439118823541e+02 2.2273508119140240e+02
61 1 1.9356024143396019e+02 1.8827429060979020e+02 2.2297614204573779e+02
62 1 1.9307401607508157e+02 1.8707069202500276e+02 2.2254089272824203e+02
63 1 1.9385029365849186e+02 1.8622859768199839e+02 2.2179666310070343e+02
64 1 1.9520794190330821e+02 1.8654875866438238e+02 2.2153886573440496e+02
65 1 1.9575889721798802e+02 1.8774269750057621e+02 2.2200225274020008e+02
66 8 1.9551314529966569e+02 1.9005699014344566e+02 2.2344353044072784e+02
67 1 1.9532691020643685e+02 1.8945916818125679e+02 2.2610139968253520e+02
68 1 1.9585079655297662e+02 1.8923177500355266e+02 2.2741931157820093e+02
69 12 1.9491211178214232e+02 1.8920602905735998e+02 2.2848072966471975e+02
70 1 1.9724512236686851e+02 1.8916876615729171e+02 2.2756107886527781e+02
71 1 1.9807777640478358e+02 1.8922749888739523e+02 2.2640507473880257e+02
72 1 1.9750815345336969e+02 1.8950536257794369e+02 2.2514476467184647e+02
73 1 1.9620317249133717e+02 1.8968250366651023e+02 2.2501669318517941e+02
74 4 1.9429948931775769e+02 1.9104535917530004e+02 2.2381725336278492e+02
75 4 1.9672579335274787e+02 1.9073218470200914e+02 2.2267055705762132e+02
76 7 1.9298085483290652e+02 1.8895949473306848e+02 2.2348598659267770e+02
77 7 1.9211484841692464e+02 1.8683542788034339e+02 2.2279235315782734e+02
78 7 1.9679486845412242e+02 1.8795556538436713e+02 2.2185999539104461e+02
79 7 1.9427424288494049e+02 1.8956964101480111e+02 2.2581345742734715e+02
80 7 1.9904427420448718e+02 1.8909268904222998e+02 2.2652284010520640e+02
81 7 1.9819725074641030e+02 1.8952735499672025e+02 2.2433474707605799e+02
82 7 1.9348841777963216e+02 1.8527600978715361e+02 2.2140603332694744e+02
83 7 1.9773179520107689e+02 1.8901540757457349e+02 2.2843909203693252e+02
85 7 1.9695287758856730e+02 1.8568895822119470e+02 2.2107662305986813e+02
88 12 2.1042737387191761e+02 2.0216680492545476e+02 1.9195645417718714e+02
89 1 2.1051130708947838e+02 2.0286523051530318e+02 1.9566074513878388e+02
90 1 2.1172398243241375e+02 2.0230066055772454e+02 1.9606113497839013e+02
91 1 2.1254905530506750e+02 2.0185509584910565e+02 1.9502637545069413e+02
92 1 2.1204720161319676e+02 2.0171225045118544e+02 1.9370454788072121e+02
93 1 2.1079527347311810e+02 2.0215085864828842e+02 1.9329286710696317e+02
94 1 2.0996965331956298e+02 2.0263156427999346e+02 1.9432053572805665e+02
95 8 2.0952802866313863e+02 2.0356481773765552e+02 1.9693916419786618e+02
96 1 2.1020126803115539e+02 2.0607280324574219e+02 1.9667075219377446e+02
97 1 2.1064650895471411e+02 2.0732870039962398e+02 1.9704911179539855e+02
98 12 2.1048366848546652e+02 2.0850720815989553e+02 1.9624687728919983e+02
99 1 2.1133080427778151e+02 2.0739472348507414e+02 1.9822835309419642e+02
100 1 2.1157736244294145e+02 2.0621894858107129e+02 1.9900319113879320e+02
101 1 2.1123977050874564e+02 2.0494903875045406e+02 1.9853417299008748e+02
102 1 2.1039936257750705e+02 2.0493501096500896e+02 1.9744324552630633e+02
103 4 2.0956683823388155e+02 2.0241515188702357e+02 1.9803217878983295e+02
104 4 2.0797672510292543e+02 2.0400917532519480e+02 1.9657558095419722e+02
105 7 2.1209682771320257e+02 2.0222208595541181e+02 1.9699386635291444e+02
106 7 2.1351611221346755e+02 2.0169988969727905e+02 1.9520565027104647e+02
107 7 2.0901873630651789e+02 2.0296623970749755e+02 1.9404164477939474e+02
108 7 2.0980124392395123e+02 2.0591652416241504e+02 1.9571888548044362e+02
109 7 2.1213407247628928e+02 2.0632805473634284e+02 1.9986602928263508e+02
110 7 2.1155285405198393e+02 2.0419372337560276e+02 1.9904486548364923e+02
111 7 2.1278506923427474e+02 2.0133537916445593e+02 1.9306443801356966e+02
112 7 2.1158141481400611e+02 2.0830729215843778e+02 1.9872267008290868e+02
117 12 1.8898452628261217e+02 2.2987177453742873e+02 2.1594985854030924e+02
118 1 1.8889520642878313e+02 2.2781408892752808e+02 2.1266067229365797e+02
119 1 1.8830735090445225e+02 2.2668140531122339e+02 2.1305592836081331e+02
120 1 1.8810764696100313e+02 2.2655430925956679e+02 2.1447642176078679e+02
121 1 1.8838712846539548e+02 2.2757242155597692e+02 2.1539119585381258e+02
122 1 1.8886859220939505e+02 2.2884073651116313e+02 2.1500266298537770e+02
123 1 1.8910160406588381e+02 2.2892445689602295e+02 2.1358396627782898e+02
124 8 1.8902280398968259e+02 2.2807833838415095e+02 2.1090888600589491e+02
125 1 1.8717241598811185e+02 2.2993064824807558e+02 2.1006369882907455e+02
126 1 1.8597331326998659e+02 2.3040240818379007e+02 2.0953504187680457e+02
127 12 1.8570013399529799e+02 2.3166449650428322e+02 2.0898458063640388e+02
128 1 1.8490423502240023e+02 2.2952925766487809e+02 2.0950079468984745e+02
129 1 1.8507157176194994e+02 2.2819642818198696e+02 2.0982964826580948e+02
130 1 1.8630359066591114e+02 2.2777492350996283e+02 2.1035090117743636e+02
131 1 1.8739632182524952e+02 2.2861389070216632e+02 2.1049861286997145e+02
132 4 1.8954175264760235e+02 2.2679266939908305e+02 2.1017069713658580e+02
133 4 1.9003240733837208e+02 2.2917163193965246e+02 2.1044608109589205e+02
134 7 1.8807806396163997e+02 2.2595649775161593e+02 2.1244890008529279e+02
135 7 1.8763014023212349e+02 2.2575085774976941e+02 2.1472344066394513e+02
136 7 1.8952439560094004e+02 2.2976026862950806e+02 2.1320313823761595e+02
137 7 1.8800686597792219e+02 2.3056185220792435e+02 2.1002920186316481e+02
138 7 1.8421539451998132e+02 2.2759808060135506e+02 2.0975187307923170e+02
139 7 1.8637553260592173e+02 2.2682165607401092e+02 2.1073771606250850e+02
140 7 1.8809809823323096e+02 2.2742395239893301e+02 2.1642506606424664e+02
141 7 1.8391843214676570e+02 2.2971356585711746e+02 2.0923422392090293e+02
146 12 1.8342075832637266e+02 2.3153584558078143e+02 2.2296830242628991e+02
147 1 1.8244017834159871e+02 2.3029155009601837e+02 2.1969940067552633e+02
148 1 1.8154328656671538e+02 2.3125626316296763e+02 2.1924833302483799e+02
149 1 1.8132827157381968e+02 2.3241875711881522e+02 2.1999484829975961e+02
150 1 1.8200457975556748e+02 2.3256871376979225e+02 2.2124032833860119e+02
151 1 1.8283284380648428e+02 2.3152216008639778e+02 2.2178880025931508e+02
152 1 1.8301276236908288e+02 2.3038848049458326e+02 2.2098718584594732e+02
153 8 1.8275359270682605e+02 2.2891938138527271e+02 2.1880767320867454e+02
154 1 1.8230079798445476e+02 2.2668273787250729e+02 2.2024250382305195e+02
155 1 1.8170655559436588e+02 2.2537541116101048e+02 2.2037483007474779e+02
156 12 1.8235944507026048e+02 2.2436348417035617e+02 2.2108667296440990e+02
157 1 1.8053519371133018e+02 2.2513624329952265e+02 2.1966571665438727e+02
158 1 1.7979984840629180e+02 2.2621073112042228e+02 2.1906928826502701e+02
159 1 1.8041354293891251e+02 2.2746543111702422e+02 2.1887073479050977e+02
160 1 1.8170919101814488e+02 2.2764655451094671e+02 2.1937248204994859e+02
161 4 1.8426404843115873e+02 2.2836679256305877e+02 2.1876730058753202e+02
162 4 1.8228564631735574e+02 2.2901655342760591e+02 2.1731334896822813e+02
163 7 1.8101882375871676e+02 2.3124521721322898e+02 2.1843455072992901e+02
164 7 1.8068769006674805e+02 1.6761665619787902e+02 2.1975829859886608e+02
165 7 1.8341762338707395e+02 2.2950447892769745e+02 2.2124880194033742e+02
166 7 1.8320123498637702e+02 2.2695907677172042e+02 2.2066287002269019e+02
167 7 1.7884690402524751e+02 2.2596352335554252e+02 2.1868694932728087e+02
168 7 1.7994735091142940e+02 2.2812645426415730e+02 2.1826976103692289e+02
169 7 1.8174959563901925e+02 1.6792603634998432e+02 2.2173138742592860e+02
170 7 1.8022229671847822e+02 2.2419374583306410e+02 2.1952996550100971e+02
175 12 1.7798567908684254e+02 1.8534116723463617e+02 1.7765256381891464e+02
176 1 1.7964039472125853e+02 1.8716545123470587e+02 1.8050879443737674e+02
177 1 1.7992501378947259e+02 1.8610931700870310e+02 1.8139922186622096e+02
178 1 1.7953164350347822e+02 1.8480429467887492e+02 1.8108861992445875e+02
179 1 1.7890357767338409e+02 1.8454738805679489e+02 1.7984662698044173e+02
180 1 1.7869868541050266e+02 1.8558895842336804e+02 1.7888444563872721e+02
181 1 1.7915509250565859e+02 1.8691466983745150e+02 1.7924195677255940e+02
182 8 1.8023628509579154e+02 1.8871816919690795e+02 1.8103378073496606e+02
183 1 1.7813811269317492e+02 1.9041240971900800e+02 1.8021546704444404e+02
184 1 1.7748429540224515e+02 1.9161747542210523e+02 1.8028772360949216e+02
185 9 1.7649275207457518e+02 1.9196689302451443e+02 1.7945947996461211e+02
186 1 1.7791930434926479e+02 1.9266754608225372e+02 1.8120340404816181e+02
187 1 1.7894740631741186e+02 1.9235973083379150e+02 1.8206765699997834e+02
188 1 1.7948513626945817e+02 1.9105086247832509e+02 1.8212098023654593e+02
189 1 1.7916751324358452e+02 1.9013262437413863e+02 1.8116283201636151e+02
190 4 1.8141520234203182e+02 1.8893827372172706e+02 1.7999613590928419e+02
191 4 1.8115322494109145e+02 1.8849202408041273e+02 1.8230412464885720e+02
192 7 1.8037871594040419e+02 1.8627115598911237e+02 1.8229968280318906e+02
193 7 1.7964550070646649e+02 1.8402169032226894e+02 1.8167711161927508e+02
194 7 1.7921262610983428e+02 1.8773245969920572e+02 1.7864174550806140e+02
195 7 1.7765673092938289e+02 1.8969920096819217e+02 1.7960077189496562e+02
196 7 1.7934931403739316e+02 1.9304776188345741e+02 1.8273963491219303e+02
197 7 1.8016277400477904e+02 1.9081354839202621e+02 1.8285982572258840e+02
198 7 1.7864010549971522e+02 1.8366853859230702e+02 1.7961085377403296e+02
199 7 1.7759497615894722e+02 1.9361270448363024e+02 1.8124856477082233e+02
203 7 1.7601426458591504e+02 1.9286871863300360e+02 1.7958486872276461e+02
204 12 1.7667932843660279e+02 1.8066939773061793e+02 2.1963175907111122e+02
205 1 1.7321066827459092e+02 1.8195020661411166e+02 2.2015589834468744e+02
206 1 1.7327505266941037e+02 1.8268228526284560e+02 2.2134649002536554e+02
207 1 1.7459318967771193e+02 1.8272468033329815e+02 2.2192365611592612e+02
208 1 1.7571409525120873e+02 1.8205969012605379e+02 2.2135112412318810e+02
209 1 1.7558692038779316e+02 1.8131573395914697e+02 2.2015094769612645e+02
210 1 1.7428037270648935e+02 1.8121645046802175e+02 2.1964269483594282e+02
211 8 1.7157370093308171e+02 1.8188755049789859e+02 2.1941862611497447e+02
212 1 1.6957806589901631e+02 1.8298666572942454e+02 2.2097952725147277e+02
213 1 1.6875817349754863e+02 1.8313020286532722e+02 2.2207245591681198e+02
214 12 1.6827964371215776e+02 1.8438481975283662e+02 2.2242547988798398e+02
215 1 1.6860172027755135e+02 1.8200599434888818e+02 2.2283570330015499e+02
216 1 1.6934707505787622e+02 1.8079491040658385e+02 2.2262632169990195e+02
217 1 1.7033405856422792e+02 1.8070944086947810e+02 2.2160249481185375e+02
218 1 1.7042461609852924e+02 1.8184937494814858e+02 2.2078806852472638e+02
219 4 1.7141387474293288e+02 1.8053671331459273e+02 2.1858702446464866e+02
220 4 1.7141613821629653e+02 1.8324788266651333e+02 2.1858452297326573e+02
221 7 1.7246866032237196e+02 1.8322138064531393e+02 2.2163938262605907e+02
222 7 1.7476667224879267e+02 1.8328087331520243e+02 2.2276319970981567e+02
223 7 1.7395937720204984e+02 1.8069243436545432e+02 2.1879651496964789e+02
224 7 1.6971012446467424e+02 1.8375134497145586e+02 2.2040215995443336e+02
225 7 1.6933010479618659e+02 1.8004889239761914e+02 2.2329227164667134e+02
226 7 1.7080041682705831e+02 1.7974979912986728e+02 2.2142564445838184e+02
227 7 1.7651396177254401e+02 1.8206110121971136e+02 2.2192401936814989e+02
228 7 1.6815170198821542e+02 1.8200198205309854e+02 2.2360762751421899e+02
233 12 2.2760591449678714e+02 1.8555161002110665e+02 1.9816157979102036e+02
234 1 2.2774501032924491e+02 1.8532908989474322e+02 2.0182335791045540e+02
235 1 2.2904848452296841e+02 1.8497546236676604e+02 2.0205957450175043e+02
236 1 2.2995799019504855e+02 1.8466212010096618e+02 2.0092578297711489e+02
237 1 2.2944522187271173e+02 1.8487526133838958e+02 1.9968237118367003e+02
238 1 2.2809851389285885e+02 1.8533644881330844e+02 1.9941935456426296e+02
239 1 2.2732882316417317e+02 1.8560241101890634e+02 2.0057529245627143e+02
240 8 2.2660993671136055e+02 1.8561246060659124e+02 2.0317054338097790e+02
241 1 2.2697571856251466e+02 1.8375831582739661e+02 2.0508258694639207e+02
242 1 2.2764706225200962e+02 1.8328845662244132e+02 2.0624436914561039e+02
243 12 2.2740600448829645e+02 1.8192709671665992e+02 2.0647974418792077e+02
244 1 2.2842766019669642e+02 1.8418736396017906e+02 2.0704861117129755e+02
245 1 2.2854753208645226e+02 1.8558811226671435e+02 2.0672197154519716e+02
246 1 2.2785700363205723e+02 1.8595790317361477e+02 2.0554188603025102e+02
247 1 2.2715553321647474e+02 1.8508529417917137e+02 2.0469785886172642e+02
248 4 2.2520647929005699e+02 1.8503220626715486e+02 2.0290601032798907e+02
249 4 2.2648534143579207e+02 1.8719493182923085e+02 2.0321726775385696e+02
250 7 2.2944963033868052e+02 1.8468207960473094e+02 2.0297503021453394e+02
251 7 2.3088581929490357e+02 1.8422103442052938e+02 2.0114466916929896e+02
252 7 2.2641978008916197e+02 1.8604279427090589e+02 2.0044650232039047e+02
253 7 2.2653745590282037e+02 1.8331360528547742e+02 2.0436174847917218e+02
254 7 2.2909053381357083e+02 1.8634533618588191e+02 2.0730312101781411e+02
255 7 2.2783504781647699e+02 1.8694984615772154e+02 2.0523013503737590e+02
256 7 2.3010423155949294e+02 1.8474162665896816e+02 1.9887342261856364e+02
257 7 2.2886499956391307e+02 1.8386603474084023e+02 2.0790036593968750e+02
262 12 1.9704697071894344e+02 1.9419878424025680e+02 2.0927587246476867e+02
263 1 1.9525317848573826e+02 1.9209083631812942e+02 2.0686138122582577e+02
264 1 1.9408073668778283e+02 1.9175711850116707e+02 2.0745532026340470e+02
265 1 1.9380064459345277e+02 1.9237400304173619e+02 2.0869704005973730e+02
266 1 1.9479163260811802e+02 1.9318581300221001e+02 2.0932549036878081e+02
267 1 1.9601983089296604e+02 1.9339052442737423e+02 2.0875047263522924e+02
268 1 1.9625776448031812e+02 1.9287561400786382e+02 2.0746122292558090e+02
269 8 1.9565518234769539e+02 1.9158300709483680e+02 2.0521871439173333e+02
270 1 1.9650150383921203e+02 1.8924065430926368e+02 2.0636058898111065e+02
271 1 1.9698281334794970e+02 1.8794673880325578e+02 2.0632046293299175e+02
272 12 1.9745927970822862e+02 1.8737362903840224e+02 2.0752975644628881e+02
273 1 1.9713725242157901e+02 1.8733167423967870e+02 2.0510069286077851e+02
274 1 1.9667437194227952e+02 1.8784884430380146e+02 2.0392444607933993e+02
275 1 1.9629061041605692e+02 1.8919225177745560e+02 2.0395047998077848e+02
276 1 1.9611567888788295e+02 1.8986576628278846e+02 2.0515888613539582e+02
277 4 1.9697333093596879e+02 1.9230967979501474e+02 2.0478103208871144e+02
278 4 1.9459460187267211e+02 1.9197389605345788e+02 2.0417317871378523e+02
279 7 1.9338095719363920e+02 1.9124220288232246e+02 2.0689241056973822e+02
280 7 1.9288795136165999e+02 1.9224000938341666e+02 2.0915396520074194e+02
281 7 1.9716025650204057e+02 1.9310372524746322e+02 2.0706032360491031e+02
282 7 1.9644875239201670e+02 1.8979219562224554e+02 2.0722319495582198e+02
283 7 1.9663566975445843e+02 1.8730871031050867e+02 2.0305295366313084e+02
284 7 1.9602729960595616e+02 1.8964568247768253e+02 2.0310975551673283e+02
285 7 1.9463981843779678e+02 1.9370936104304269e+02 2.1015880778735377e+02
286 7 1.9758538805094582e+02 1.8635812478093501e+02 2.0499269318873098e+02
291 12 1.9035103019759771e+02 2.0090358784285476e+02 2.2658493979878347e+02
292 1 1.9204525721716197e+02 2.0034034800161129e+02 2.2329567460310747e+02
293 1 1.9110058362635093e+02 1.9964268928352323e+02 2.2251640159009105e+02
294 1 1.8984792473146803e+02 1.9925152372212509e+02 2.2311573798272539e+02
295 1 1.8957840572456041e+02 1.9966953532373961e+02 2.2441046630099012e+02
296 1 1.9049272632160375e+02 2.0043650343652811e+02 2.2521312272988976e+02
297 1 1.9173252018592052e+02 2.0075962979815657e+02 2.2459677676297557e+02
298 8 1.9357401824720446e+02 2.0072781286331696e+02 2.2251921121099247e+02
299 1 1.9523564405439114e+02 1.9958037840250893e+02 2.2444268398440704e+02
300 1 1.9592366866225274e+02 1.9849000412453756e+02 2.2503846066524363e+02
301 12 1.9619063658083982e+02 1.9839227057471069e+02 2.2641138795269569e+02
302 1 1.9614540434282415e+02 1.9736235173428412e+02 2.2420002617379882e+02
303 1 1.9565621001588366e+02 1.9728192212912012e+02 2.2296567080003078e+02
304 1 1.9486815348112199e+02 1.9838247702019538e+02 2.2241186847214144e+02
305 1 1.9470983856116501e+02 1.9959267889593474e+02 2.2319412726706634e+02
306 4 1.9383958081610677e+02 2.0217048573266626e+02 2.2314982153633343e+02
307 4 1.9369342363267296e+02 2.0091408973729128e+02 2.2089604678642783e+02
308 7 1.9134267737774147e+02 1.9938646186629580e+02 2.2150645440939005e+02
309 7 1.8917250595232883e+02 1.9884958304715596e+02 2.2248634089248239e+02
310 7 1.9234895258777874e+02 2.0134669944027479e+02 2.2508158464270068e+02
311 7 1.9505747458796728e+02 2.0039866092560356e+02 2.2497976611788482e+02
312 7 1.9588781255609021e+02 1.9648905293569084e+02 2.2233477181153310e+02
313 7 1.9453546047590947e+02 1.9824474002654952e+02 2.2154647160216544e+02
314 7 1.8862267689058498e+02 1.9936295689314267e+02 2.2484658064833275e+02
315 7 1.9673765393487187e+02 1.9665810336850404e+02 2.2449064357525126e+02
320 12 2.0568862220388482e+02 2.0443579522141269e+02 2.2238014064426883e+02
321 1 2.0851856929505584e+02 2.0202512639876267e+02 2.2263545211719736e+02
322 1 2.0911444949031068e+02 2.0214429656481545e+02 2.2135970832892571e+02
323 1 2.0862944263737714e+02 2.0311117093094737e+02 2.2048914541221336e+02
324 1 2.0749048692305206e+02 2.0390563865091266e+02 2.2084894979894065e+02
325 1 2.0686496612176035e+02 2.0374044690124586e+02 2.2208116207714548e+02
326 1 2.0737320305401695e+02 2.0278358515709053e+02 2.2300821893910697e+02
327 8 2.0909957608017726e+02 2.0084310800032384e+02 2.2380882991101353e+02
328 1 2.0785834316791500e+02 1.9842422426780186e+02 2.2334108707633823e+02
329 1 2.0709264288510033e+02 1.9726941378516130e+02 2.2366111086698425e+02
330 12 2.0725285278480413e+02 1.9603883541658740e+02 2.2302164102352788e+02
331 1 2.0618918628838651e+02 1.9743090424721845e+02 2.2471947245878988e+02
332 1 2.0596949430460435e+02 1.9868411068954583e+02 2.2533514979975001e+02
333 1 2.0676762735791215e+02 1.9977123792384970e+02 2.2503975144374277e+02
334 1 2.0784196493022969e+02 1.9962368799914645e+02 2.2409344677353602e+02
335 4 2.0921996176511055e+02 2.0160140364145363e+02 2.2524064859620327e+02
336 4 2.1045159271601119e+02 2.0027921355030622e+02 2.2321022432414611e+02
337 7 2.0984647657962182e+02 2.0147501416985443e+02 2.2110685347887619e+02
338 7 2.0904784556202554e+02 2.0334819554093565e+02 2.1954632242783123e+02
339 7 2.0692826465405398e+02 2.0262508480295671e+02 2.2394778280608861e+02
340 7 2.0843187422476609e+02 1.9856669985660443e+02 2.2254034221985103e+02
341 7 2.0518427751367898e+02 1.9874089846583868e+02 2.2611197265266065e+02
342 7 2.0663634083894033e+02 2.0069459592237803e+02 2.2544379295809640e+02
343 7 2.0694817990706457e+02 2.0448057178822555e+02 2.2015455098535986e+02
344 7 2.0564667930928425e+02 1.9672903230917561e+02 2.2511323450488712e+02
349 12 1.9246740082233853e+02 1.7689793127564010e+02 2.1626637628634359e+02
350 1 1.9216213316041055e+02 1.7941261251512398e+02 2.1889216041996318e+02
351 1 1.9304159962115693e+02 1.8043737951955063e+02 2.1845917099824842e+02
352 1 1.9371560249905312e+02 1.8033751731521588e+02 2.1729189397963751e+02
353 1 1.9365018451566567e+02 1.7908850303516178e+02 2.1664939780246132e+02
354 1 1.9280541961898820e+02 1.7800222188135231e+02 2.1703724481622498e+02
355 1 1.9210939847756225e+02 1.7815117535557727e+02 2.1825619553252466e+02
356 8 1.9137292681256886e+02 1.7964951515940385e+02 2.2037283469231656e+02
357 1 1.8964790396369330e+02 1.7769131765108602e+02 2.2137842015436414e+02
358 1 1.8935585297807722e+02 1.7660412141237069e+02 2.2218337286764560e+02
359 12 1.8808109342013304e+02 1.7644597880107352e+02 2.2262421755165872e+02
360 1 1.9038831818298351e+02 1.7580923543687081e+02 2.2265472500240048e+02
361 1 1.9171486227341953e+02 1.7615028470137574e+02 2.2228857021526110e+02
362 1 1.9207448928371491e+02 1.7728950119860247e+02 2.2148973104502051e+02
363 1 1.9102113279932541e+02 1.7810544615591584e+02 2.2115258778194490e+02
364 4 1.8988860945220330e+02 1.8018012053358134e+02 2.2003007246863453e+02
365 4 1.9214123325051335e+02 1.8082794522850267e+02 2.2113388469532748e+02
366 7 1.9305704749171053e+02 1.8130816367737577e+02 2.1898451328878627e+02
367 7 1.9429764614205448e+02 1.8110376551124332e+02 2.1690586573723360e+02
368 7 1.9151348959095327e+02 1.7739210840408066e+02 2.1853194634106356e+02
369 7 1.8898346686931399e+02 1.7834771531288786e+02 2.2112500143583148e+02
370 7 1.9250069899629202e+02 1.7542339853151276e+02 2.2247552760471700e+02
371 7 1.9309227349596355e+02 1.7752832277601516e+02 2.2123466143055680e+02
372 7 1.9416459545129243e+02 1.7913499983991048e+02 2.1569378048939907e+02
373 7 1.9024732446591543e+02 1.7502647541713145e+02 2.2321340358768393e+02
378 12 2.3041808539953399e+02 2.0847325785341914e+02 2.2077363753238964e+02
379 1 2.3218326051063408e+02 2.0521469305189092e+02 2.2065422124741045e+02
380 1 2.3172756038507700e+02 2.0457027307922627e+02 2.2184967278618413e+02
381 1 2.3075197918968377e+02 2.0520832043342025e+02 2.2257833573397460e+02
382 1 2.3029506347153057e+02 2.0648696027891293e+02 2.2224126377532610e+02
383 1 2.3081796914971429e+02 2.0718517734632266e+02 2.2114355524920546e+02
384 1 2.3174514727964402e+02 2.0648681225378800e+02 2.2026553969209590e+02
385 8 1.6780744550043670e+02 2.0442590522024807e+02 2.1964032364914689e+02
386 1 2.3273912911491996e+02 2.0227147898999669e+02 2.1802535762219671e+02
387 1 2.3204536130241965e+02 2.0154327072068330e+02 2.1697350563863412e+02
388 12 2.3212994485495341e+02 2.0019271001772140e+02 2.1673216482271411e+02
389 1 2.3125492544528609e+02 2.0234876061994331e+02 2.1611056681943921e+02
390 1 2.3121242626096520e+02 2.0373446510796913e+02 2.1621147430254646e+02
391 1 2.3188045658572207e+02 2.0435984841451344e+02 2.1727746548633982e+02
392 1 2.3256880305497464e+02 2.0362924189018551e+02 2.1826407559790928e+02
393 4 1.6886040787121931e+02 2.0348552258460953e+02 2.2029767319279986e+02
394 4 1.6879639147772403e+02 2.0560546081315243e+02 2.1908340954081811e+02
395 7 2.3198353288778648e+02 2.0371048684612413e+02 2.2225105497112426e+02
396 7 2.3034510059837808e+02 2.0478079560682750e+02 2.2342789176832818e+02
397 7 2.3207237950581188e+02 2.0679150884449771e+02 2.1938242342752147e+02
398 7 1.6792012653326395e+02 2.0192116168714443e+02 2.1865880438316697e+02
399 7 2.3065094797655283e+02 2.0429736469399677e+02 2.1554998158004130e+02
400 7 2.3184257368565042e+02 2.0540417352100044e+02 2.1728272754919976e+02
401 7 2.2946627978849128e+02 2.0689763222270307e+02 2.2284074085771755e+02
402 7 2.3059441368411774e+02 2.0185920740053453e+02 2.1545264376117822e+02
407 9 1.7718431229279770e+02 1.7679252919580745e+02 1.8311208748114205e+02
408 1 1.7630483295147269e+02 1.8032860963238673e+02 1.8363444996301558e+02
409 1 1.7605460031307902e+02 1.8031698160730278e+02 1.8496815541379596e+02
410 1 1.7613470743443145e+02 1.7913337053396307e+02 1.8565555875286918e+02
411 1 1.7648400331235095e+02 1.7790064791528260e+02 1.8512751908712008e+02
412 1 1.7673932378233624e+02 1.7788792260917486e+02 1.8371765576691894e+02
413 1 1.7656580144690531e+02 1.7909426033782583e+02 1.8296311422020312e+02
414 8 1.7589214602307476e+02 1.8179336189983044e+02 1.8275863758221251e+02
415 1 1.7396713194789771e+02 1.8079684408346759e+02 1.8120533900346152e+02
416 1 1.7335750962342968e+02 1.8034951689664041e+02 1.7999774876959219e+02
417 12 1.7209409328720011e+02 1.7967879648859440e+02 1.7994479038657528e+02
418 1 1.7411771881600265e+02 1.8056862401086153e+02 1.7887829012744470e+02
419 1 1.7536215757771410e+02 1.8136586524523338e+02 1.7896430675757486e+02
420 1 1.7587929740146063e+02 1.8181701838652717e+02 1.8006418430787818e+02
421 1 1.7527748850667444e+02 1.8146743340295129e+02 1.8122577048025113e+02
422 4 1.7703158373097685e+02 1.8293183475330164e+02 1.8297926014356042e+02
423 4 1.7484421793448195e+02 1.8255324452079930e+02 1.8372459844500563e+02
424 7 1.7577907573564059e+02 1.8125661509459846e+02 1.8553998130953201e+02
425 7 1.7601256728145069e+02 1.7911708246935032e+02 1.8664152159681646e+02
426 7 1.7666347536718953e+02 1.7908775910541252e+02 1.8197452106390159e+02
427 7 1.7342635982333016e+02 1.8063805152530173e+02 1.8208427028208683e+02
428 7 1.7578157552336398e+02 1.8151927245536609e+02 1.7808285869152510e+02
429 7 1.7677822736708561e+02 1.8237316341501415e+02 1.8013205437305288e+02
430 7 1.7669510443175847e+02 1.7716634742589974e+02 1.8575804010302863e+02
431 7 1.7383191865863776e+02 1.8020126916066249e+02 1.7795824925412535e+02
433 7 1.7747258954376161e+02 1.7693296329504295e+02 1.8222303796898075e+02
436 12 1.9277150289222550e+02 1.6817317231914160e+02 2.0995630089827660e+02
437 1 1.9362105018277887e+02 1.7134199939527943e+02 2.1183253381937590e+02
438 1 1.9398758727852294e+02 1.7087508835353117e+02 2.1307666885343161e+02
439 1 1.9409113756813926e+02 1.6945806657349021e+02 2.1328262790962651e+02
440 1 1.9378001153399248e+02 1.6853773848268060e+02 2.1227680854323953e+02
441 1 1.9328853689374614e+02 1.6895784105541162e+02 2.1101137193766658e+02
442 1 1.9338204332196014e+02 1.7034085311680835e+02 2.1083505963048589e+02
443 8 1.9328346289844814e+02 1.7299534351077719e+02 2.1137603300295373e+02
444 1 1.9203560333755493e+02 1.7402603072369880e+02 2.0922755485864991e+02
445 1 1.9095461729054364e+02 1.7414739626190757e+02 2.0829555510920625e+02
446 12 1.9123286509937310e+02 1.7480239482146061e+02 2.0706791315081333e+02
447 1 1.8974622828122375e+02 1.7368448589624330e+02 2.0872308220054467e+02
448 1 1.8951157147919281e+02 1.7307633768521066e+02 2.0994072440683146e+02
449 1 1.9059656154387076e+02 1.7287474509182491e+02 2.1079332782204764e+02
450 1 1.9187826554299073e+02 1.7329022404974876e+02 2.1041002766946033e+02
451 4 1.9452784518800306e+02 1.7377006390651474e+02 2.1097528895169449e+02
452 4 1.9279312149388213e+02 1.7366740124336266e+02 2.1276187110536952e+02
453 7 1.9417738304468443e+02 1.7153123691750531e+02 2.1390385896894261e+02
454 7 1.9449186995251583e+02 1.6911409863925206e+02 2.1420207068983399e+02